/*--------------------------------*- C++ -*----------------------------------*\
| =========                 |                                                 |
| \\      /  F ield         | OpenFOAM: The Open Source CFD Toolbox           |
|  \\    /   O peration     | Version:  2312                                  |
|   \\  /    A nd           | Website:  www.openfoam.com                      |
|    \\/     M anipulation  |                                                 |
\*---------------------------------------------------------------------------*/
FoamFile
{
    version     2.0;
    format      ascii;
    arch        "LSB;label=32;scalar=64";
    class       volVectorField;
    location    "50";
    object      U;
}
// * * * * * * * * * * * * * * * * * * * * * * * * * * * * * * * * * * * * * //

dimensions      [0 1 -1 0 0 0 0];

internalField   nonuniform List<vector> 
10201
(
(4.47912e-06 -4.50809e-06 0)
(2.45885e-05 -1.28061e-05 0)
(5.84387e-05 -1.54309e-05 0)
(9.1777e-05 -1.39321e-05 0)
(0.000116261 -1.02543e-05 0)
(0.000127913 -5.57754e-06 0)
(0.000124848 -5.69083e-07 0)
(0.000106441 4.39477e-06 0)
(7.28827e-05 9.11196e-06 0)
(2.4835e-05 1.34826e-05 0)
(-3.67866e-05 1.74688e-05 0)
(-0.000110954 2.10713e-05 0)
(-0.000196615 2.43097e-05 0)
(-0.00029276 2.7217e-05 0)
(-0.000398453 2.98325e-05 0)
(-0.000512849 3.21971e-05 0)
(-0.000635206 3.43506e-05 0)
(-0.000764877 3.63295e-05 0)
(-0.00090131 3.81653e-05 0)
(-0.00104403 3.98845e-05 0)
(-0.00119262 4.15073e-05 0)
(-0.00134671 4.30479e-05 0)
(-0.00150596 4.45146e-05 0)
(-0.00167006 4.59098e-05 0)
(-0.00183866 4.7231e-05 0)
(-0.00201142 4.84707e-05 0)
(-0.00218796 4.96174e-05 0)
(-0.00236785 5.0656e-05 0)
(-0.00255062 5.15685e-05 0)
(-0.00273572 5.23343e-05 0)
(-0.00292255 5.29314e-05 0)
(-0.00311043 5.33362e-05 0)
(-0.0032986 5.35244e-05 0)
(-0.00348622 5.34716e-05 0)
(-0.00367241 5.31535e-05 0)
(-0.00385618 5.25468e-05 0)
(-0.00403648 5.1629e-05 0)
(-0.00421221 5.03796e-05 0)
(-0.0043822 4.87798e-05 0)
(-0.00454523 4.68136e-05 0)
(-0.00470007 4.44681e-05 0)
(-0.00484543 4.17335e-05 0)
(-0.00498003 3.86041e-05 0)
(-0.00510256 3.50786e-05 0)
(-0.00521175 3.11601e-05 0)
(-0.00530636 2.68571e-05 0)
(-0.00538518 2.21832e-05 0)
(-0.00544708 1.71578e-05 0)
(-0.005491 1.1806e-05 0)
(-0.00551599 6.15894e-06 0)
(-0.00552121 2.53801e-07 0)
(-0.00550597 -5.86706e-06 0)
(-0.00546971 -1.21549e-05 0)
(-0.00541207 -1.8556e-05 0)
(-0.00533285 -2.50118e-05 0)
(-0.00523205 -3.14598e-05 0)
(-0.00510988 -3.78338e-05 0)
(-0.00496677 -4.40651e-05 0)
(-0.00480337 -5.00833e-05 0)
(-0.00462054 -5.58177e-05 0)
(-0.00441937 -6.1198e-05 0)
(-0.00420118 -6.61559e-05 0)
(-0.00396747 -7.0626e-05 0)
(-0.00371995 -7.45477e-05 0)
(-0.00346052 -7.78655e-05 0)
(-0.00319121 -8.05311e-05 0)
(-0.00291423 -8.25038e-05 0)
(-0.00263186 -8.37519e-05 0)
(-0.00234648 -8.42532e-05 0)
(-0.00206054 -8.39957e-05 0)
(-0.00177647 -8.29781e-05 0)
(-0.00149674 -8.12097e-05 0)
(-0.00122373 -7.87104e-05 0)
(-0.000959763 -7.55106e-05 0)
(-0.000707057 -7.16504e-05 0)
(-0.000467686 -6.71788e-05 0)
(-0.000243563 -6.21528e-05 0)
(-3.641e-05 -5.66364e-05 0)
(0.000152258 -5.06991e-05 0)
(0.000321154 -4.44144e-05 0)
(0.00046923 -3.78596e-05 0)
(0.000595689 -3.11133e-05 0)
(0.00069999 -2.42552e-05 0)
(0.000781856 -1.73647e-05 0)
(0.000841271 -1.0521e-05 0)
(0.000878488 -3.80278e-06 0)
(0.000894026 2.71134e-06 0)
(0.000888681 8.94123e-06 0)
(0.000863528 1.48036e-05 0)
(0.000819942 2.02074e-05 0)
(0.000759626 2.50494e-05 0)
(0.000684647 2.92066e-05 0)
(0.000597502 3.25252e-05 0)
(0.000501202 3.48045e-05 0)
(0.000399394 3.57737e-05 0)
(0.000296529 3.5061e-05 0)
(0.000198073 3.2169e-05 0)
(0.000110656 2.64914e-05 0)
(4.20498e-05 1.74079e-05 0)
(9.41737e-07 4.98084e-06 0)
(-5.80249e-06 -5.79159e-06 0)
(1.29153e-05 -2.47162e-05 0)
(5.48643e-05 -5.4649e-05 0)
(0.000114411 -6.124e-05 0)
(0.000166689 -5.08782e-05 0)
(0.000195991 -3.02004e-05 0)
(0.000193577 -3.87759e-06 0)
(0.000154473 2.50021e-05 0)
(7.64229e-05 5.44457e-05 0)
(-4.08639e-05 8.32144e-05 0)
(-0.000196387 0.000110579 0)
(-0.000388352 0.000136152 0)
(-0.000614533 0.000159777 0)
(-0.000872512 0.000181446 0)
(-0.00115986 0.000201247 0)
(-0.00147422 0.000219328 0)
(-0.00181344 0.000235864 0)
(-0.00217552 0.00025104 0)
(-0.00255868 0.000265031 0)
(-0.00296135 0.000277996 0)
(-0.00338211 0.000290066 0)
(-0.00381969 0.000301346 0)
(-0.00427291 0.000311906 0)
(-0.00474066 0.000321785 0)
(-0.00522185 0.00033099 0)
(-0.00571537 0.000339497 0)
(-0.00622006 0.000347256 0)
(-0.00673465 0.000354194 0)
(-0.00725777 0.000360216 0)
(-0.00778791 0.000365209 0)
(-0.00832338 0.000369047 0)
(-0.00886233 0.000371594 0)
(-0.00940271 0.000372709 0)
(-0.00994228 0.000372245 0)
(-0.0104786 0.000370057 0)
(-0.0110091 0.000366003 0)
(-0.0115309 0.000359946 0)
(-0.0120411 0.000351761 0)
(-0.0125365 0.000341334 0)
(-0.0130139 0.000328565 0)
(-0.0134699 0.000313373 0)
(-0.0139011 0.000295699 0)
(-0.014304 0.000275505 0)
(-0.014675 0.00025278 0)
(-0.0150108 0.000227541 0)
(-0.0153078 0.000199836 0)
(-0.0155628 0.000169742 0)
(-0.0157726 0.000137372 0)
(-0.0159343 0.000102873 0)
(-0.0160451 6.64264e-05 0)
(-0.0161026 2.82497e-05 0)
(-0.0161047 -1.1406e-05 0)
(-0.0160497 -5.22557e-05 0)
(-0.0159364 -9.39824e-05 0)
(-0.0157639 -0.00013624 0)
(-0.0155319 -0.000178656 0)
(-0.0152405 -0.000220837 0)
(-0.0148906 -0.00026237 0)
(-0.0144834 -0.000302831 0)
(-0.0140209 -0.00034179 0)
(-0.0135055 -0.000378813 0)
(-0.0129402 -0.000413477 0)
(-0.0123287 -0.00044537 0)
(-0.0116751 -0.000474102 0)
(-0.0109841 -0.000499307 0)
(-0.0102607 -0.000520658 0)
(-0.00951051 -0.000537867 0)
(-0.00873933 -0.000550692 0)
(-0.00795331 -0.000558946 0)
(-0.00715884 -0.000562496 0)
(-0.00636239 -0.000561271 0)
(-0.00557051 -0.000555262 0)
(-0.00478974 -0.000544523 0)
(-0.00402647 -0.000529171 0)
(-0.00328692 -0.000509385 0)
(-0.00257705 -0.000485403 0)
(-0.00190243 -0.000457517 0)
(-0.00126823 -0.00042607 0)
(-0.000679153 -0.000391447 0)
(-0.000139328 -0.000354072 0)
(0.00034769 -0.000314399 0)
(0.000778981 -0.000272907 0)
(0.00115229 -0.000230091 0)
(0.00146605 -0.000186461 0)
(0.00171941 -0.000142531 0)
(0.00191223 -9.88262e-05 0)
(0.00204513 -5.58727e-05 0)
(0.00211945 -1.42074e-05 0)
(0.00213732 2.56181e-05 0)
(0.00210169 6.30278e-05 0)
(0.00201632 9.74014e-05 0)
(0.00188589 0.000128055 0)
(0.00171608 0.000154211 0)
(0.00151368 0.000174957 0)
(0.00128674 0.000189198 0)
(0.00104476 0.000195603 0)
(0.000798855 0.000192559 0)
(0.000561946 0.000178203 0)
(0.000348463 0.000150664 0)
(0.000173606 0.000108691 0)
(5.37877e-05 5.38948e-05 0)
(4.91124e-06 9.07016e-07 0)
(1.57782e-05 -5.89373e-05 0)
(6.20358e-05 -0.000114432 0)
(0.0001199 -0.000119186 0)
(0.000159474 -8.76078e-05 0)
(0.000161906 -3.22853e-05 0)
(0.000116139 3.71479e-05 0)
(1.543e-05 0.000113724 0)
(-0.000143589 0.000192613 0)
(-0.000361691 0.000270597 0)
(-0.000637835 0.000345633 0)
(-0.00096979 0.000416524 0)
(-0.0013546 0.000482672 0)
(-0.00178896 0.000543897 0)
(-0.00226941 0.000600295 0)
(-0.00279258 0.000652141 0)
(-0.00335525 0.000699806 0)
(-0.0039544 0.000743704 0)
(-0.00458731 0.000784241 0)
(-0.00525145 0.00082179 0)
(-0.00594453 0.000856667 0)
(-0.00666443 0.000889116 0)
(-0.00740916 0.000919302 0)
(-0.00817678 0.000947308 0)
(-0.00896538 0.000973137 0)
(-0.009773 0.000996714 0)
(-0.0105976 0.00101789 0)
(-0.0114369 0.00103647 0)
(-0.0122886 0.00105217 0)
(-0.0131501 0.0010647 0)
(-0.0140185 0.0010737 0)
(-0.0148907 0.00107883 0)
(-0.0157633 0.00107968 0)
(-0.0166326 0.00107587 0)
(-0.0174946 0.00106701 0)
(-0.0183451 0.00105274 0)
(-0.0191795 0.00103268 0)
(-0.0199932 0.00100653 0)
(-0.0207811 0.00097399 0)
(-0.0215381 0.000934816 0)
(-0.022259 0.00088882 0)
(-0.0229383 0.000835868 0)
(-0.0235707 0.000775897 0)
(-0.0241507 0.000708913 0)
(-0.024673 0.000635002 0)
(-0.0251324 0.000554333 0)
(-0.025524 0.000467163 0)
(-0.0258429 0.000373839 0)
(-0.0260848 0.000274801 0)
(-0.0262457 0.000170582 0)
(-0.026322 6.18085e-05 0)
(-0.0263108 -5.08015e-05 0)
(-0.0262096 -0.000166443 0)
(-0.0260167 -0.00028423 0)
(-0.025731 -0.000403202 0)
(-0.0253524 -0.000522333 0)
(-0.0248812 -0.000640541 0)
(-0.024319 -0.000756703 0)
(-0.0236679 -0.000869667 0)
(-0.0229309 -0.000978268 0)
(-0.0221121 -0.00108135 0)
(-0.0212162 -0.00117776 0)
(-0.0202488 -0.0012664 0)
(-0.0192164 -0.00134624 0)
(-0.0181261 -0.0014163 0)
(-0.0169857 -0.0014757 0)
(-0.0158037 -0.00152368 0)
(-0.014589 -0.0015596 0)
(-0.013351 -0.00158296 0)
(-0.0120994 -0.00159341 0)
(-0.010844 -0.00159075 0)
(-0.00959478 -0.00157497 0)
(-0.00836172 -0.00154619 0)
(-0.00715457 -0.00150472 0)
(-0.00598282 -0.00145104 0)
(-0.00485557 -0.00138579 0)
(-0.00378139 -0.00130972 0)
(-0.00276825 -0.00122377 0)
(-0.00182341 -0.00112896 0)
(-0.000953303 -0.00102643 0)
(-0.000163494 -0.000917416 0)
(0.000541403 -0.000803221 0)
(0.00115778 -0.000685203 0)
(0.00168308 -0.000564768 0)
(0.00211583 -0.000443353 0)
(0.00245569 -0.000322423 0)
(0.00270344 -0.00020347 0)
(0.00286107 -8.80166e-05 0)
(0.00293175 2.23654e-05 0)
(0.00291991 0.000126032 0)
(0.00283131 0.000221238 0)
(0.00267306 0.000306084 0)
(0.00245379 0.000378461 0)
(0.00218373 0.000435985 0)
(0.00187483 0.000475928 0)
(0.00154096 0.000495171 0)
(0.00119795 0.000490224 0)
(0.000863598 0.000457449 0)
(0.00055709 0.000393719 0)
(0.000297878 0.000297783 0)
(0.000108527 0.000173649 0)
(1.72696e-05 4.18482e-05 0)
(1.44803e-05 -9.30112e-05 0)
(5.17702e-05 -0.000167012 0)
(8.74024e-05 -0.00015868 0)
(9.06064e-05 -9.21971e-05 0)
(4.1738e-05 1.3271e-05 0)
(-7.10805e-05 0.000142744 0)
(-0.00025524 0.000284968 0)
(-0.000514521 0.00043184 0)
(-0.000849863 0.000577744 0)
(-0.00126013 0.000718961 0)
(-0.00174279 0.000853199 0)
(-0.00229437 0.000979213 0)
(-0.00291092 0.00109651 0)
(-0.00358826 0.00120512 0)
(-0.00432221 0.0013054 0)
(-0.00510874 0.00139792 0)
(-0.005944 0.00148333 0)
(-0.00682443 0.0015623 0)
(-0.00774669 0.00163544 0)
(-0.00870769 0.00170328 0)
(-0.00970448 0.00176621 0)
(-0.0107343 0.00182449 0)
(-0.0117943 0.00187825 0)
(-0.0128818 0.00192745 0)
(-0.0139939 0.00197195 0)
(-0.0151277 0.00201143 0)
(-0.01628 0.00204551 0)
(-0.0174473 0.00207368 0)
(-0.0186259 0.00209536 0)
(-0.0198117 0.00210991 0)
(-0.0210005 0.00211665 0)
(-0.0221874 0.00211486 0)
(-0.0233673 0.00210382 0)
(-0.0245349 0.00208284 0)
(-0.0256843 0.00205122 0)
(-0.0268093 0.00200834 0)
(-0.0279037 0.00195362 0)
(-0.0289607 0.00188655 0)
(-0.0299736 0.00180671 0)
(-0.0309354 0.00171381 0)
(-0.0318389 0.00160764 0)
(-0.0326772 0.00148814 0)
(-0.0334432 0.00135537 0)
(-0.03413 0.00120956 0)
(-0.034731 0.00105108 0)
(-0.0352398 0.00088047 0)
(-0.0356503 0.000698447 0)
(-0.0359571 0.000505886 0)
(-0.0361552 0.00030384 0)
(-0.0362401 9.353e-05 0)
(-0.0362084 -0.00012366 0)
(-0.0360571 -0.000346187 0)
(-0.0357842 -0.000572365 0)
(-0.0353887 -0.000800376 0)
(-0.0348706 -0.00102829 0)
(-0.0342307 -0.00125407 0)
(-0.033471 -0.00147564 0)
(-0.0325948 -0.00169083 0)
(-0.031606 -0.0018975 0)
(-0.0305101 -0.0020935 0)
(-0.0293134 -0.00227672 0)
(-0.0280231 -0.00244512 0)
(-0.0266478 -0.0025968 0)
(-0.0251966 -0.00272998 0)
(-0.0236797 -0.00284304 0)
(-0.0221081 -0.00293458 0)
(-0.0204931 -0.00300343 0)
(-0.0188469 -0.00304866 0)
(-0.0171819 -0.00306962 0)
(-0.0155109 -0.00306596 0)
(-0.0138466 -0.00303762 0)
(-0.0122018 -0.00298485 0)
(-0.0105892 -0.0029082 0)
(-0.00902091 -0.00280852 0)
(-0.00750883 -0.00268697 0)
(-0.00606408 -0.00254497 0)
(-0.00469703 -0.00238419 0)
(-0.00341718 -0.00220654 0)
(-0.00223301 -0.00201413 0)
(-0.0011519 -0.00180925 0)
(-0.000180009 -0.00159432 0)
(0.00067777 -0.00137191 0)
(0.0014179 -0.00114465 0)
(0.00203824 -0.000915269 0)
(0.00253812 -0.000686559 0)
(0.00291836 -0.000461369 0)
(0.0031813 -0.000242619 0)
(0.00333089 -3.33207e-05 0)
(0.0033727 0.000163386 0)
(0.00331399 0.00034419 0)
(0.00316378 0.000505536 0)
(0.00293296 0.000643555 0)
(0.00263437 0.000753984 0)
(0.00228287 0.000832102 0)
(0.00189546 0.000872727 0)
(0.00149126 0.000870332 0)
(0.00109144 0.000819458 0)
(0.000718521 0.000715666 0)
(0.000395399 0.000557269 0)
(0.00015093 0.000348804 0)
(2.63501e-05 0.000110301 0)
(1.08075e-05 -0.000118161 0)
(2.99036e-05 -0.000195356 0)
(2.75199e-05 -0.000158646 0)
(-2.43287e-05 -4.19003e-05 0)
(-0.000144215 0.000129108 0)
(-0.000343745 0.000334069 0)
(-0.000630083 0.000557466 0)
(-0.00100678 0.000787871 0)
(-0.00147456 0.00101716 0)
(-0.00203199 0.0012398 0)
(-0.00267617 0.00145226 0)
(-0.0034032 0.00165255 0)
(-0.00420861 0.00183975 0)
(-0.00508763 0.00201375 0)
(-0.00603547 0.00217496 0)
(-0.00704741 0.0023241 0)
(-0.00811894 0.00246205 0)
(-0.00924577 0.00258972 0)
(-0.0104239 0.00270797 0)
(-0.0116494 0.0028175 0)
(-0.0129186 0.00291886 0)
(-0.014228 0.00301239 0)
(-0.0155739 0.00309822 0)
(-0.0169528 0.00317626 0)
(-0.018361 0.00324621 0)
(-0.0197944 0.00330758 0)
(-0.021249 0.00335973 0)
(-0.0227202 0.00340185 0)
(-0.0242032 0.00343302 0)
(-0.0256928 0.00345224 0)
(-0.0271833 0.00345844 0)
(-0.0286687 0.00345051 0)
(-0.0301426 0.00342736 0)
(-0.0315981 0.0033879 0)
(-0.0330279 0.0033311 0)
(-0.0344245 0.003256 0)
(-0.03578 0.00316176 0)
(-0.0370862 0.00304763 0)
(-0.0383347 0.00291304 0)
(-0.0395171 0.00275756 0)
(-0.0406249 0.00258097 0)
(-0.0416495 0.00238325 0)
(-0.0425827 0.00216458 0)
(-0.0434161 0.0019254 0)
(-0.0441419 0.00166638 0)
(-0.0447526 0.00138846 0)
(-0.0452412 0.00109283 0)
(-0.0456014 0.000780946 0)
(-0.0458274 0.000454527 0)
(-0.0459142 0.00011555 0)
(-0.0458579 -0.000233759 0)
(-0.0456553 -0.000590944 0)
(-0.0453044 -0.000953327 0)
(-0.0448042 -0.00131804 0)
(-0.0441548 -0.00168205 0)
(-0.0433577 -0.00204218 0)
(-0.0424156 -0.00239517 0)
(-0.0413323 -0.00273767 0)
(-0.040113 -0.00306634 0)
(-0.0387642 -0.00337786 0)
(-0.0372935 -0.00366898 0)
(-0.0357098 -0.00393655 0)
(-0.0340232 -0.00417764 0)
(-0.0322448 -0.00438949 0)
(-0.0303865 -0.00456963 0)
(-0.0284614 -0.0047159 0)
(-0.026483 -0.00482649 0)
(-0.0244658 -0.00489996 0)
(-0.0224244 -0.00493532 0)
(-0.0203739 -0.00493199 0)
(-0.0183295 -0.00488987 0)
(-0.0163065 -0.00480931 0)
(-0.0143198 -0.00469116 0)
(-0.0123841 -0.00453671 0)
(-0.0105134 -0.0043477 0)
(-0.00872107 -0.00412631 0)
(-0.00701971 -0.00387512 0)
(-0.00542076 -0.00359706 0)
(-0.00393454 -0.0032954 0)
(-0.00257008 -0.00297368 0)
(-0.00133501 -0.00263571 0)
(-0.000235453 -0.00228547 0)
(0.000724059 -0.00192714 0)
(0.00154067 -0.00156501 0)
(0.00221325 -0.0012035 0)
(0.00274246 -0.000847154 0)
(0.00313081 -0.000500611 0)
(0.00338271 -0.000168665 0)
(0.00350451 0.000143713 0)
(0.00350455 0.000431311 0)
(0.00339326 0.0006886 0)
(0.00318318 0.000909662 0)
(0.00288904 0.00108811 0)
(0.00252784 0.00121704 0)
(0.0021188 0.00128908 0)
(0.00168341 0.00129661 0)
(0.00124535 0.00123221 0)
(0.00082986 0.00108978 0)
(0.000463069 0.000866129 0)
(0.000179748 0.000563907 0)
(3.21592e-05 0.000197922 0)
(5.80534e-06 -0.000129552 0)
(4.09929e-07 -0.000188447 0)
(-5.18609e-05 -0.000104483 0)
(-0.000173414 7.9907e-05 0)
(-0.000380228 0.000332737 0)
(-0.000682786 0.000628654 0)
(-0.00108727 0.000948084 0)
(-0.00159644 0.00127641 0)
(-0.00221035 0.00160305 0)
(-0.00292707 0.00192067 0)
(-0.00374319 0.00222451 0)
(-0.00465434 0.00251175 0)
(-0.00565553 0.00278103 0)
(-0.00674152 0.00303206 0)
(-0.00790695 0.00326525 0)
(-0.00914656 0.00348145 0)
(-0.0104553 0.00368175 0)
(-0.0118282 0.00386728 0)
(-0.0132606 0.00403909 0)
(-0.0147479 0.00419806 0)
(-0.016286 0.00434486 0)
(-0.0178702 0.00447986 0)
(-0.0194965 0.00460316 0)
(-0.0211602 0.00471456 0)
(-0.0228567 0.00481358 0)
(-0.0245813 0.00489949 0)
(-0.0263287 0.00497133 0)
(-0.0280934 0.00502794 0)
(-0.0298695 0.005068 0)
(-0.0316506 0.00509009 0)
(-0.0334298 0.00509269 0)
(-0.0351999 0.00507427 0)
(-0.0369531 0.00503329 0)
(-0.0386811 0.00496826 0)
(-0.0403756 0.00487777 0)
(-0.0420273 0.00476053 0)
(-0.0436272 0.00461539 0)
(-0.0451656 0.00444141 0)
(-0.0466329 0.00423784 0)
(-0.0480193 0.00400419 0)
(-0.0493149 0.00374025 0)
(-0.0505101 0.00344608 0)
(-0.0515954 0.00312208 0)
(-0.0525613 0.00276896 0)
(-0.0533992 0.00238781 0)
(-0.0541006 0.00198005 0)
(-0.0546577 0.00154748 0)
(-0.0550635 0.00109225 0)
(-0.0553117 0.0006169 0)
(-0.055397 0.000124295 0)
(-0.0553152 -0.000382351 0)
(-0.0550628 -0.000899505 0)
(-0.054638 -0.00142335 0)
(-0.0540399 -0.00194979 0)
(-0.053269 -0.00247455 0)
(-0.0523271 -0.00299313 0)
(-0.0512175 -0.00350094 0)
(-0.0499448 -0.00399329 0)
(-0.0485152 -0.00446549 0)
(-0.0469359 -0.00491289 0)
(-0.0452159 -0.00533095 0)
(-0.0433654 -0.0057153 0)
(-0.0413956 -0.00606182 0)
(-0.0393193 -0.00636668 0)
(-0.03715 -0.00662645 0)
(-0.0349024 -0.00683808 0)
(-0.0325919 -0.00699905 0)
(-0.0302348 -0.00710736 0)
(-0.0278477 -0.00716156 0)
(-0.0254476 -0.00716086 0)
(-0.0230518 -0.00710506 0)
(-0.0206776 -0.00699463 0)
(-0.018342 -0.0068307 0)
(-0.0160616 -0.00661502 0)
(-0.0138527 -0.00635001 0)
(-0.0117305 -0.00603866 0)
(-0.00970936 -0.00568454 0)
(-0.00780268 -0.00529175 0)
(-0.00602243 -0.00486484 0)
(-0.00437922 -0.00440879 0)
(-0.00288205 -0.00392895 0)
(-0.00153829 -0.00343097 0)
(-0.000353473 -0.00292075 0)
(0.000668731 -0.00240443 0)
(0.00152662 -0.00188831 0)
(0.00222055 -0.00137889 0)
(0.00275294 -0.000882816 0)
(0.0031284 -0.000406949 0)
(0.00335373 4.16285e-05 0)
(0.00343798 0.000455534 0)
(0.00339252 0.000827019 0)
(0.00323106 0.00114789 0)
(0.00296967 0.00140946 0)
(0.00262684 0.00160249 0)
(0.00222344 0.0017173 0)
(0.00178273 0.00174401 0)
(0.00133042 0.00167302 0)
(0.000894083 0.00149595 0)
(0.000502865 0.00120702 0)
(0.000196517 0.00080513 0)
(3.53693e-05 0.000297457 0)
(4.0894e-08 -0.000124106 0)
(-3.41698e-05 -0.000138267 0)
(-0.00014512 1.51461e-05 0)
(-0.000347764 0.000286603 0)
(-0.000654311 0.000638577 0)
(-0.00107335 0.00104119 0)
(-0.00160947 0.00147118 0)
(-0.0022641 0.00191101 0)
(-0.0030363 0.00234783 0)
(-0.00392329 0.00277266 0)
(-0.00492101 0.00317953 0)
(-0.0060245 0.00356487 0)
(-0.00722825 0.00392688 0)
(-0.00852652 0.0042651 0)
(-0.00991347 0.00457991 0)
(-0.0113833 0.00487231 0)
(-0.0129305 0.00514352 0)
(-0.0145496 0.00539488 0)
(-0.0162353 0.00562761 0)
(-0.0179825 0.00584274 0)
(-0.0197862 0.00604098 0)
(-0.0216413 0.00622271 0)
(-0.0235428 0.00638795 0)
(-0.0254854 0.00653634 0)
(-0.0274637 0.00666716 0)
(-0.0294717 0.00677938 0)
(-0.0315035 0.00687167 0)
(-0.0335525 0.00694245 0)
(-0.0356116 0.00698998 0)
(-0.0376734 0.00701234 0)
(-0.0397298 0.00700755 0)
(-0.0417724 0.00697359 0)
(-0.0437922 0.00690846 0)
(-0.0457797 0.00681024 0)
(-0.0477251 0.00667712 0)
(-0.0496182 0.00650749 0)
(-0.0514485 0.00629991 0)
(-0.0532052 0.00605325 0)
(-0.0548775 0.00576662 0)
(-0.0564544 0.00543952 0)
(-0.057925 0.00507178 0)
(-0.0592785 0.00466364 0)
(-0.0605045 0.00421576 0)
(-0.0615927 0.00372925 0)
(-0.0625336 0.00320565 0)
(-0.0633181 0.00264702 0)
(-0.0639377 0.00205584 0)
(-0.064385 0.00143511 0)
(-0.0646532 0.000788259 0)
(-0.0647368 0.000119197 0)
(-0.0646314 -0.000567752 0)
(-0.0643335 -0.00126786 0)
(-0.0638413 -0.00197602 0)
(-0.063154 -0.00268682 0)
(-0.0622726 -0.00339456 0)
(-0.0611992 -0.00409334 0)
(-0.0599376 -0.00477709 0)
(-0.0584931 -0.00543966 0)
(-0.0568724 -0.0060749 0)
(-0.0550839 -0.0066767 0)
(-0.0531373 -0.00723914 0)
(-0.0510438 -0.00775649 0)
(-0.0488159 -0.00822336 0)
(-0.0464674 -0.00863476 0)
(-0.0440134 -0.00898615 0)
(-0.0414698 -0.00927358 0)
(-0.0388537 -0.0094937 0)
(-0.0361826 -0.00964386 0)
(-0.033475 -0.00972216 0)
(-0.0307496 -0.00972748 0)
(-0.0280253 -0.00965951 0)
(-0.0253213 -0.00951882 0)
(-0.0226562 -0.0093068 0)
(-0.0200486 -0.0090257 0)
(-0.0175165 -0.0086786 0)
(-0.0150769 -0.00826937 0)
(-0.012746 -0.00780264 0)
(-0.0105388 -0.00728374 0)
(-0.00846881 -0.00671863 0)
(-0.00654822 -0.00611385 0)
(-0.0047874 -0.00547645 0)
(-0.00319494 -0.00481388 0)
(-0.00177745 -0.00413401 0)
(-0.000539491 -0.00344498 0)
(0.000516537 -0.00275522 0)
(0.00139048 -0.00207339 0)
(0.00208452 -0.00140841 0)
(0.00260318 -0.000769418 0)
(0.00295343 -0.000165855 0)
(0.0031447 0.00039251 0)
(0.00318892 0.000895503 0)
(0.00310056 0.00133248 0)
(0.0028966 0.00169228 0)
(0.0025966 0.0019632 0)
(0.00222263 0.0021331 0)
(0.00179936 0.00218964 0)
(0.00135413 0.00212065 0)
(0.000916565 0.00191497 0)
(0.000518453 0.00156333 0)
(0.00020332 0.00105972 0)
(3.66255e-05 0.000402922 0)
(-6.18111e-06 -9.97661e-05 0)
(-7.22146e-05 -3.89452e-05 0)
(-0.000248361 0.000208996 0)
(-0.000540908 0.000588841 0)
(-0.000957417 0.0010584 0)
(-0.00150397 0.00158391 0)
(-0.00218299 0.00213891 0)
(-0.00299417 0.00270331 0)
(-0.00393516 0.00326232 0)
(-0.00500212 0.00380548 0)
(-0.0061901 0.00432581 0)
(-0.00749345 0.00481908 0)
(-0.00890606 0.00528314 0)
(-0.0104217 0.00571735 0)
(-0.0120339 0.00612214 0)
(-0.0137367 0.00649858 0)
(-0.0155238 0.00684808 0)
(-0.0173894 0.00717211 0)
(-0.0193277 0.00747206 0)
(-0.021333 0.00774902 0)
(-0.0233997 0.00800374 0)
(-0.0255221 0.00823654 0)
(-0.0276944 0.00844729 0)
(-0.0299106 0.00863543 0)
(-0.0321644 0.00879995 0)
(-0.0344491 0.00893944 0)
(-0.0367577 0.00905216 0)
(-0.0390827 0.00913609 0)
(-0.0414159 0.00918895 0)
(-0.0437488 0.00920835 0)
(-0.0460724 0.00919178 0)
(-0.0483769 0.00913671 0)
(-0.0506524 0.00904068 0)
(-0.0528881 0.00890132 0)
(-0.0550732 0.00871643 0)
(-0.0571962 0.00848406 0)
(-0.0592455 0.00820255 0)
(-0.0612093 0.00787055 0)
(-0.0630757 0.00748714 0)
(-0.0648327 0.00705181 0)
(-0.0664685 0.00656452 0)
(-0.0679714 0.00602574 0)
(-0.0693302 0.00543648 0)
(-0.070534 0.0047983 0)
(-0.0715724 0.00411334 0)
(-0.0724359 0.00338432 0)
(-0.0731156 0.00261456 0)
(-0.0736035 0.00180796 0)
(-0.0738928 0.000968978 0)
(-0.0739776 0.000102644 0)
(-0.0738533 -0.000785498 0)
(-0.0735166 -0.00168942 0)
(-0.0729656 -0.00260264 0)
(-0.0721999 -0.0035183 0)
(-0.0712204 -0.00442923 0)
(-0.0700298 -0.00532797 0)
(-0.0686321 -0.00620691 0)
(-0.0670332 -0.00705835 0)
(-0.0652405 -0.00787456 0)
(-0.0632628 -0.00864793 0)
(-0.0611106 -0.00937101 0)
(-0.0587961 -0.0100367 0)
(-0.0563325 -0.0106381 0)
(-0.0537347 -0.0111691 0)
(-0.0510188 -0.0116241 0)
(-0.0482018 -0.0119978 0)
(-0.0453021 -0.0122863 0)
(-0.0423386 -0.0124861 0)
(-0.039331 -0.0125947 0)
(-0.0362995 -0.0126106 0)
(-0.0332646 -0.0125335 0)
(-0.0302469 -0.0123639 0)
(-0.0272669 -0.0121034 0)
(-0.0243446 -0.0117548 0)
(-0.0214996 -0.0113218 0)
(-0.0187507 -0.0108092 0)
(-0.0161157 -0.0102227 0)
(-0.0136113 -0.00956898 0)
(-0.0112525 -0.00885541 0)
(-0.00905286 -0.00809021 0)
(-0.0070243 -0.00728223 0)
(-0.00517661 -0.00644091 0)
(-0.00351757 -0.00557618 0)
(-0.00205273 -0.00469839 0)
(-0.000785321 -0.00381825 0)
(0.00028386 -0.00294683 0)
(0.00115651 -0.00209546 0)
(0.00183688 -0.0012758 0)
(0.00233185 -0.00049983 0)
(0.00265094 0.000220102 0)
(0.00280636 0.000871223 0)
(0.00281298 0.00144027 0)
(0.00268841 0.00191347 0)
(0.0024529 0.00227649 0)
(0.00212944 0.00251457 0)
(0.00174379 0.00261264 0)
(0.00132466 0.0025557 0)
(0.000903367 0.00232927 0)
(0.000513838 0.00192008 0)
(0.000202174 0.00131668 0)
(3.64539e-05 0.000509597 0)
(-1.26909e-05 -5.5147e-05 0)
(-0.000112685 0.000113781 0)
(-0.000358884 0.000483703 0)
(-0.000748135 0.000994988 0)
(-0.00128272 0.0016017 0)
(-0.0019657 0.00226688 0)
(-0.00279693 0.00296146 0)
(-0.00377393 0.00366325 0)
(-0.00489264 0.00435587 0)
(-0.0061479 0.00502769 0)
(-0.00753369 0.00567095 0)
(-0.00904351 0.00628091 0)
(-0.0106706 0.00685518 0)
(-0.0124081 0.00739306 0)
(-0.0142491 0.00789501 0)
(-0.0161871 0.00836223 0)
(-0.0182155 0.0087963 0)
(-0.0203279 0.00919882 0)
(-0.0225181 0.00957127 0)
(-0.02478 0.00991481 0)
(-0.0271072 0.0102301 0)
(-0.0294936 0.0105175 0)
(-0.0319327 0.0107765 0)
(-0.0344177 0.0110064 0)
(-0.0369415 0.0112058 0)
(-0.0394967 0.0113728 0)
(-0.0420753 0.0115053 0)
(-0.0446688 0.0116007 0)
(-0.0472682 0.0116562 0)
(-0.049864 0.0116689 0)
(-0.052446 0.0116358 0)
(-0.0550035 0.0115537 0)
(-0.0575253 0.0114198 0)
(-0.0599999 0.0112311 0)
(-0.0624152 0.0109853 0)
(-0.0647588 0.0106799 0)
(-0.0670181 0.0103132 0)
(-0.0691803 0.00988359 0)
(-0.0712327 0.00939017 0)
(-0.0731623 0.00883248 0)
(-0.0749565 0.00821069 0)
(-0.0766031 0.00752556 0)
(-0.07809 0.00677851 0)
(-0.0794058 0.00597165 0)
(-0.0805396 0.00510778 0)
(-0.0814813 0.00419037 0)
(-0.0822218 0.00322365 0)
(-0.0827528 0.00221251 0)
(-0.0830671 0.00116251 0)
(-0.0831587 7.98827e-05 0)
(-0.0830231 -0.00102853 0)
(-0.0826567 -0.00215532 0)
(-0.0820577 -0.00329256 0)
(-0.0812259 -0.00443188 0)
(-0.0801622 -0.00556453 0)
(-0.0788696 -0.00668148 0)
(-0.0773524 -0.00777348 0)
(-0.0756168 -0.00883119 0)
(-0.0736705 -0.00984526 0)
(-0.071523 -0.0108065 0)
(-0.0691852 -0.0117058 0)
(-0.0666697 -0.0125346 0)
(-0.0639907 -0.0132847 0)
(-0.0611638 -0.0139485 0)
(-0.0582058 -0.0145191 0)
(-0.0551348 -0.0149903 0)
(-0.0519701 -0.015357 0)
(-0.0487317 -0.015615 0)
(-0.0454405 -0.0157613 0)
(-0.042118 -0.0157939 0)
(-0.0387861 -0.0157122 0)
(-0.0354666 -0.0155167 0)
(-0.0321816 -0.0152093 0)
(-0.0289526 -0.0147931 0)
(-0.0258009 -0.0142725 0)
(-0.0227469 -0.0136533 0)
(-0.0198098 -0.0129421 0)
(-0.0170079 -0.0121471 0)
(-0.0143579 -0.0112771 0)
(-0.0118748 -0.010342 0)
(-0.009572 -0.00935271 0)
(-0.00746059 -0.00832061 0)
(-0.00554958 -0.00725787 0)
(-0.00384566 -0.0061772 0)
(-0.00235299 -0.00509178 0)
(-0.00107322 -0.00401518 0)
(-5.27575e-06 -0.00296137 0)
(0.000854606 -0.0019447 0)
(0.00151299 -0.000979856 0)
(0.00197926 -8.19344e-05 0)
(0.00226562 0.000733525 0)
(0.00238715 0.00145049 0)
(0.00236176 0.00205241 0)
(0.0022102 0.00252218 0)
(0.00195612 0.00284222 0)
(0.0016261 0.00299453 0)
(0.00124994 0.00296097 0)
(0.000860304 0.00272348 0)
(0.00049272 0.00226444 0)
(0.000194792 0.00156693 0)
(3.52479e-05 0.000613837 0)
(-1.93942e-05 1.0731e-05 0)
(-0.000154904 0.000323044 0)
(-0.000474795 0.000844308 0)
(-0.000965972 0.00151157 0)
(-0.001625 0.00227603 0)
(-0.00245155 0.00309827 0)
(-0.00344251 0.0039472 0)
(-0.00459293 0.00479909 0)
(-0.00589677 0.00563637 0)
(-0.00734729 0.0064466 0)
(-0.00893723 0.0072215 0)
(-0.0106591 0.00795604 0)
(-0.0125054 0.00864774 0)
(-0.0144686 0.00929595 0)
(-0.0165413 0.00990125 0)
(-0.0187166 0.010465 0)
(-0.0209873 0.0109889 0)
(-0.0233467 0.0114748 0)
(-0.0257881 0.0119242 0)
(-0.0283049 0.0123382 0)
(-0.0308904 0.0127174 0)
(-0.0335377 0.013062 0)
(-0.0362397 0.0133714 0)
(-0.038989 0.0136443 0)
(-0.0417778 0.013879 0)
(-0.0445978 0.0140733 0)
(-0.0474402 0.0142243 0)
(-0.0502957 0.0143291 0)
(-0.0531544 0.0143842 0)
(-0.0560056 0.0143861 0)
(-0.0588385 0.0143313 0)
(-0.0616412 0.0142162 0)
(-0.0644018 0.0140372 0)
(-0.0671075 0.0137913 0)
(-0.0697455 0.0134754 0)
(-0.0723025 0.0130871 0)
(-0.0747649 0.0126242 0)
(-0.0771193 0.0120852 0)
(-0.0793518 0.0114692 0)
(-0.0814492 0.0107758 0)
(-0.083398 0.0100055 0)
(-0.0851853 0.00915937 0)
(-0.0867985 0.00823931 0)
(-0.0882258 0.00724804 0)
(-0.0894558 0.00618908 0)
(-0.090478 0.00506675 0)
(-0.0912831 0.00388622 0)
(-0.0918623 0.00265343 0)
(-0.0922085 0.00137514 0)
(-0.0923153 5.88083e-05 0)
(-0.0921781 -0.00128736 0)
(-0.0917934 -0.00265453 0)
(-0.0911592 -0.00403327 0)
(-0.0902751 -0.00541366 0)
(-0.0891425 -0.00678533 0)
(-0.0877641 -0.00813759 0)
(-0.0861446 -0.00945953 0)
(-0.0842901 -0.0107401 0)
(-0.0822087 -0.0119683 0)
(-0.07991 -0.0131332 0)
(-0.0774054 -0.0142242 0)
(-0.074708 -0.015231 0)
(-0.0718322 -0.016144 0)
(-0.0687943 -0.016954 0)
(-0.0656116 -0.017653 0)
(-0.0623032 -0.0182336 0)
(-0.058889 -0.0186895 0)
(-0.05539 -0.0190157 0)
(-0.0518282 -0.0192084 0)
(-0.0482261 -0.0192651 0)
(-0.0446068 -0.019185 0)
(-0.0409937 -0.0189684 0)
(-0.0374099 -0.0186174 0)
(-0.0338787 -0.0181355 0)
(-0.0304228 -0.0175276 0)
(-0.027064 -0.0168004 0)
(-0.0238234 -0.0159618 0)
(-0.0207207 -0.0150209 0)
(-0.0177743 -0.0139885 0)
(-0.0150008 -0.0128761 0)
(-0.0124149 -0.0116965 0)
(-0.0100294 -0.0104633 0)
(-0.00785446 -0.00919108 0)
(-0.00589808 -0.00789493 0)
(-0.00416554 -0.00659064 0)
(-0.00265944 -0.00529449 0)
(-0.00137954 -0.00402322 0)
(-0.000322731 -0.00279401 0)
(0.000517037 -0.00162442 0)
(0.0011488 -0.000532473 0)
(0.00158459 0.000463378 0)
(0.00183943 0.00134418 0)
(0.00193137 0.00209044 0)
(0.00188144 0.00268213 0)
(0.00171371 0.00309865 0)
(0.00145543 0.00331891 0)
(0.00113716 0.0033214 0)
(0.000792549 0.0030843 0)
(0.000458275 0.00258559 0)
(0.00018255 0.00180308 0)
(3.32929e-05 0.000712844 0)
(-2.62389e-05 9.85817e-05 0)
(-0.000198413 0.000591171 0)
(-0.000594717 0.00129464 0)
(-0.0011918 0.00214364 0)
(-0.00198019 0.00308733 0)
(-0.00295589 0.00408457 0)
(-0.00411255 0.0051029 0)
(-0.00544245 0.00611756 0)
(-0.00693735 0.00711029 0)
(-0.00858873 0.00806822 0)
(-0.0103879 0.00898285 0)
(-0.0123264 0.00984914 0)
(-0.0143957 0.0106647 0)
(-0.0165876 0.0114291 0)
(-0.0188943 0.012143 0)
(-0.0213082 0.0128082 0)
(-0.0238218 0.0134265 0)
(-0.026428 0.0139997 0)
(-0.0291197 0.0145296 0)
(-0.0318898 0.0150171 0)
(-0.0347311 0.0154629 0)
(-0.0376362 0.0158668 0)
(-0.0405975 0.0162279 0)
(-0.0436069 0.0165445 0)
(-0.0466559 0.0168146 0)
(-0.0497355 0.0170353 0)
(-0.0528362 0.0172033 0)
(-0.0559478 0.0173149 0)
(-0.0590595 0.0173662 0)
(-0.06216 0.0173531 0)
(-0.0652372 0.0172714 0)
(-0.0682788 0.0171171 0)
(-0.0712717 0.0168861 0)
(-0.0742024 0.016575 0)
(-0.0770573 0.0161803 0)
(-0.0798222 0.0156994 0)
(-0.082483 0.0151301 0)
(-0.0850253 0.0144706 0)
(-0.0874348 0.0137202 0)
(-0.0896974 0.0128788 0)
(-0.0917993 0.0119469 0)
(-0.093727 0.0109262 0)
(-0.0954675 0.00981917 0)
(-0.0970085 0.00862907 0)
(-0.0983382 0.00736023 0)
(-0.099446 0.00601788 0)
(-0.100322 0.00460816 0)
(-0.100957 0.00313812 0)
(-0.101345 0.00161572 0)
(-0.101477 4.9716e-05 0)
(-0.101351 -0.00155031 0)
(-0.100961 -0.00317406 0)
(-0.100306 -0.00481058 0)
(-0.0993852 -0.00644835 0)
(-0.0982 -0.00807535 0)
(-0.0967531 -0.00967923 0)
(-0.0950489 -0.0112473 0)
(-0.0930937 -0.0127669 0)
(-0.0908955 -0.0142252 0)
(-0.0884641 -0.0156096 0)
(-0.0858109 -0.0169077 0)
(-0.0829493 -0.0181078 0)
(-0.0798939 -0.0191984 0)
(-0.0766614 -0.020169 0)
(-0.0732697 -0.0210101 0)
(-0.0697382 -0.0217129 0)
(-0.0660876 -0.0222702 0)
(-0.0623397 -0.0226758 0)
(-0.0585174 -0.0229252 0)
(-0.0546442 -0.0230153 0)
(-0.0507443 -0.0229447 0)
(-0.0468424 -0.0227136 0)
(-0.042963 -0.0223242 0)
(-0.0391307 -0.0217802 0)
(-0.0353698 -0.0210873 0)