/*--------------------------------*- C++ -*----------------------------------*\
| =========                 |                                                 |
| \\      /  F ield         | OpenFOAM: The Open Source CFD Toolbox           |
|  \\    /   O peration     | Version:  2312                                  |
|   \\  /    A nd           | Website:  www.openfoam.com                      |
|    \\/     M anipulation  |                                                 |
\*---------------------------------------------------------------------------*/
FoamFile
{
    version     2.0;
    format      ascii;
    arch        "LSB;label=32;scalar=64";
    class       volScalarField;
    location    "50";
    object      p;
}
// * * * * * * * * * * * * * * * * * * * * * * * * * * * * * * * * * * * * * //

dimensions      [0 2 -2 0 0 0 0];

internalField   nonuniform List<scalar> 
2500
(
2.37106e-07
-0.000237732
-0.00094999
-0.00200626
-0.00324106
-0.00452095
-0.0057448
-0.00683532
-0.00773535
-0.00840406
-0.00881359
-0.00894639
-0.00879321
-0.00835152
-0.00762433
-0.00661927
-0.00534795
-0.00382541
-0.00206983
-0.000102253
0.00205361
0.00437151
0.0068228
0.00937658
0.0119999
0.014658
0.0173147
0.0199325
0.0224736
0.0248999
0.0271741
0.0292602
0.0311244
0.0327362
0.0340688
0.0351006
0.035816
0.0362064
0.0362708
0.0360174
0.0354642
0.0346403
0.0335869
0.032359
0.0310273
0.0296795
0.0284238
0.0273894
0.0267348
0.0265564
0.000237878
1.32958e-07
-0.000586248
-0.00142922
-0.0024079
-0.00342645
-0.00440543
-0.00528029
-0.00600079
-0.0065293
-0.00683882
-0.00691133
-0.00673622
-0.00630914
-0.00563098
-0.00470708
-0.00354665
-0.00216234
-0.000569826
0.00121239
0.0031632
0.00525911
0.00747432
0.00978098
0.0121494
0.0145481
0.0169446
0.0193054
0.0215963
0.0237837
0.0258343
0.0277165
0.0294006
0.0308603
0.0320726
0.0330196
0.0336886
0.0340736
0.0341756
0.0340035
0.0335753
0.0329185
0.0320708
0.0310812
0.0300107
0.0289322
0.0279301
0.0270987
0.0265539
0.0263778
0.000951548
0.000585394
-6.33602e-06
-0.000767447
-0.0016231
-0.0025005
-0.00333653
-0.00407858
-0.00468422
-0.00512054
-0.0053632
-0.00539531
-0.00520649
-0.00479184
-0.00415127
-0.00328881
-0.00221211
-0.000932083
0.000537449
0.00217997
0.00397647
0.00590562
0.00794396
0.010066
0.0122446
0.0144511
0.0166555
0.0188272
0.0209352
0.0229484
0.0248369
0.0265717
0.0281263
0.0294768
0.0306029
0.0314888
0.0321237
0.0325027
0.0326276
0.0325075
0.032159
0.0316075
0.0308869
0.0300402
0.0291194
0.028185
0.0273049
0.0265527
0.0260067
0.0257261
0.00202321
0.00143326
0.000742376
-3.09784e-05
-0.000855628
-0.00167569
-0.00244092
-0.00310972
-0.00364768
-0.00402744
-0.00422834
-0.0042358
-0.00404062
-0.00363835
-0.00302874
-0.00221518
-0.00120438
-6.01396e-06
0.00136751
0.00290126
0.00457794
0.00637806
0.00828005
0.0102605
0.0122942
0.0143546
0.016414
0.0184438
0.0204152
0.0222994
0.0240684
0.0256953
0.0271554
0.0284266
0.0294899
0.0303309
0.0309396
0.0313115
0.0314483
0.0313583
0.0310565
0.0305656
0.0299154
0.0291432
0.0282931
0.0274152
0.0265654
0.0258027
0.0251687
0.0246904
0.0032999
0.00243317
0.00159277
0.000756428
-8.71676e-05
-0.000896064
-0.00163105
-0.00226074
-0.00275868
-0.00310327
-0.00327799
-0.00327112
-0.00307522
-0.00268679
-0.00210587
-0.00133564
-0.000382199
0.000745723
0.0020369
0.00347778
0.00505259
0.00674345
0.00853054
0.0103922
0.012305
0.0142443
0.0161842
0.0180979
0.0199583
0.0217383
0.0234114
0.0249524
0.0263376
0.027546
0.0285599
0.029365
0.0299519
0.0303159
0.030458
0.0303853
0.030111
0.0296546
0.0290421
0.0283052
0.0274808
0.0266097
0.0257384
0.024914
0.0241414
0.0234117
0.00466197
0.00349705
0.00247717
0.00154294
0.000643791
-0.000189382
-0.00092647
-0.00154525
-0.00202663
-0.00235466
-0.00251709
-0.00250525
-0.00231384
-0.00194063
-0.00138628
-0.000654064
0.000250259
0.00131863
0.00254079
0.00390434
0.00539484
0.00699585
0.00868904
0.0104543
0.0122698
0.0141124
0.0159577
0.0177804
0.0195546
0.0212545
0.0228548
0.0243311
0.0256606
0.0268229
0.0278004
0.0285791
0.0291492
0.0295056
0.0296482
0.0295825
0.0293196
0.028876
0.0282738
0.0275398
0.0267046
0.0258013
0.0248688
0.0239455
0.0230017
0.0219952
0.00601803
0.00455053
0.00333483
0.00227908
0.0012977
0.000413157
-0.000351722
-0.000982621
-0.00146708
-0.00179443
-0.00195655
-0.00194789
-0.0017654
-0.00140834
-0.000878209
-0.000178615
0.000684812
0.00170448
0.00287087
0.00417256
0.00559622
0.00712666
0.00874684
0.010438
0.0121795
0.0139496
0.015725
0.0174815
0.0191942
0.0208382
0.0223886
0.0238217
0.0251148
0.0262477
0.0272026
0.0279651
0.0285248
0.0288754
0.0290156
0.028949
0.0286845
0.0282359
0.0276215
0.026864
0.0259884
0.0250218
0.0239978
0.0229485
0.0218138
0.0205231
0.00729602
0.00553047
0.00411196
0.00292035
0.00183898
0.000884001
7.25353e-05
-0.000587845
-0.00109053
-0.00142963
-0.0016009
-0.00160181
-0.00143155
-0.00109096
-0.000582516
8.97251e-05
0.000920091
0.00190129
0.0030244
0.00427878
0.00565206
0.00713009
0.00869693
0.0103349
0.0120246
0.013745
0.0154739
0.0171879
0.0188626
0.0204735
0.0219961
0.0234067
0.0246824
0.0258027
0.0267491
0.0275064
0.0280631
0.0284115
0.0285489
0.0284767
0.0282016
0.0277346
0.027091
0.0262896
0.0253513
0.0242983
0.0231607
0.0219669
0.0206302
0.0190552
0.00843856
0.00638348
0.00476089
0.00342555
0.00223302
0.00119481
0.00032356
-0.000378859
-0.000910933
-0.00127105
-0.00145849
-0.00147357
-0.00131763
-0.00099309
-0.00050341
0.000146799
0.000951731
0.00190429
0.002996
0.00421689
0.00555538
0.00699822
0.0085304
0.0101351
0.0117939
0.0134866
0.0151913
0.0168854
0.0185447
0.0201449
0.0216613
0.0230698
0.0243472
0.0254719
0.0264245
0.0271887
0.0277514
0.0281035
0.02824
0.0281606
0.0278694
0.027375
0.0266899
0.0258298
0.0248122
0.0236559
0.022389
0.0210379
0.0194927
0.0176367
0.0093989
0.00706399
0.00523916
0.00375647
0.0024463
0.00131668
0.000376799
-0.000376335
-0.000945632
-0.00133326
-0.00154169
-0.00157384
-0.00143309
-0.00112331
-0.000648983
-1.52725e-05
0.000771826
0.00170534
0.00277716
0.00397786
0.00529655
0.00672073
0.00823618
0.00982688
0.011475
0.0131609
0.0148633
0.0165595
0.0182257
0.0198372
0.0213689
0.022796
0.0240944
0.0252414
0.0262163
0.0270009
0.0275805
0.0279439
0.0280843
0.0279989
0.0276897
0.0271627
0.0264279
0.0254987
0.02439
0.0231179
0.0217101
0.0201928
0.018435
0.016301
0.0101375
0.00753221
0.00550856
0.00387766
0.00244662
0.00122087
0.000206873
-0.000602512
-0.00121407
-0.00163332
-0.00186558
-0.00191614
-0.00179022
-0.00149307
-0.00103013
-0.000407091
0.000369841
0.00129378
0.00235693
0.00355034
0.00486372
0.00628523
0.00780129
0.00939652
0.0110536
0.0127533
0.0144747
0.016195
0.0178901
0.0195349
0.0211038
0.0225707
0.0239104
0.0250987
0.0261129
0.0269332
0.0275426
0.0279277
0.0280792
0.0279922
0.0276661
0.0271048
0.0263159
0.0253109
0.0241027
0.0227061
0.0211489
0.0194582
0.0174843
0.0150737
0.0106199
0.00775255
0.00553412
0.00375582
0.00220293
0.000878861
-0.000212121
-0.00108079
-0.00173734
-0.00219027
-0.00244746
-0.00251632
-0.00240376
-0.0021163
-0.00166021
-0.0010417
-0.000267146
0.000656632
0.00172212
0.00292082
0.00424298
0.00567733
0.00721088
0.00882875
0.0105141
0.0122479
0.0140092
0.0157753
0.0175215
0.0192222
0.0208504
0.0223792
0.0237816
0.0250313
0.026104
0.0269772
0.0276316
0.0280511
0.028224
0.0281427
0.0278041
0.0272099
0.0263658
0.0252815
0.0239686
0.0224411
0.0207278
0.0188579
0.0166636
0.0139748
0.0108144
0.00769225
0.00528314
0.00335928
0.00168508
0.000262335
-0.00090653
-0.00183552
-0.00253791
-0.00302485
-0.00330656
-0.00339236
-0.00329069
-0.00300918
-0.00255487
-0.0019344
-0.0011543
-0.000221301
0.000857389
0.00207369
0.00341836
0.00488069
0.00644819
0.00810646
0.00983894
0.0116269
0.0134492
0.0152828
0.0171027
0.018882
0.0205929
0.0222066
0.0236942
0.0250276
0.0261796
0.0271252
0.0278423
0.0283118
0.0285192
0.0284539
0.0281105
0.0274881
0.0265907
0.0254264
0.0240061
0.0223431
0.0204684
0.0184137
0.0159937
0.0130218
0.0106915
0.00732039
0.00472447
0.00265742
0.000863485
-0.000656979
-0.00190312
-0.00289191
-0.00363943
-0.00415929
-0.00446381
-0.00456408
-0.00446989
-0.00418989
-0.00373178
-0.00310256
-0.00230885
-0.00135724
-0.000254625
0.000991355
0.00237198
0.00387707
0.00549466
0.00721076
0.00900911
0.010871
0.0127754
0.0146987
0.0166151
0.0184967
0.0203143
0.0220373
0.0236346
0.0250754
0.02633
0.0273701
0.0281703
0.0287084
0.0289664
0.0289309
0.0285934
0.0279507
0.0270047
0.0257625
0.024234
0.0224328
0.0203921
0.0181468
0.015494
0.0122305
0.0102225
0.00660709
0.00382786
0.00162027
-0.000291191
-0.00190745
-0.00322911
-0.00427592
-0.00506662
-0.00561708
-0.0059416
-0.00605287
-0.00596194
-0.00567836
-0.0052104
-0.00456534
-0.00374981
-0.0027702
-0.00163307
-0.000345561
0.00108416
0.00264648
0.00432998
0.00612108
0.00800382
0.0099596
0.0119671
0.0140024
0.0160388
0.0180473
0.0199969
0.021855
0.0235881
0.0251626
0.0265453
0.0277047
0.0286116
0.0292402
0.0295686
0.0295799
0.0292625
0.0286105
0.0276239
0.0263082
0.024673
0.0227319
0.0205212
0.018079
0.0151846
0.0116175
0.00937898
0.00552293
0.00256345
0.000218037
-0.00180828
-0.00351771
-0.00491222
-0.00601428
-0.00684512
-0.00742283
-0.00776353
-0.00788146
-0.00778882
-0.00749597
-0.00701167
-0.00634338
-0.0054977
-0.00448074
-0.00329863
-0.00195796
-0.000466289
0.00116741
0.0029323
0.0048153
0.00680076
0.00887022
0.0110022
0.0131722
0.0153528
0.0175135
0.0196217
0.0216424
0.0235395
0.0252761
0.0268155
0.0281222
0.0291628
0.0299071
0.0303293
0.0304083
0.0301288
0.0294821
0.0284657
0.0270838
0.0253451
0.023264
0.0208795
0.0182338
0.015087
0.0112006
0.00813258
0.00403847
0.000901336
-0.00157917
-0.0037174
-0.00551683
-0.00698079
-0.00813442
-0.00900146
-0.0096021
-0.00995428
-0.0100737
-0.00997366
-0.00966527
-0.0091577
-0.00845854
-0.00757424
-0.00651057
-0.00527315
-0.00386794
-0.00230178
-0.000582909
0.00127851
0.00327
0.00537632
0.0075792
0.00985705
0.0121849
0.0145344
0.0168738
0.0191685
0.0213811
0.0234726
0.0254024
0.0271299
0.0286152
0.0298201
0.0307097
0.0312531
0.0314247
0.0312051
0.0305819
0.02955
0.0281118
0.0262753
0.0240552
0.0214937
0.0186372
0.0152254
0.0110006
0.00645432
0.00212387
-0.00118873
-0.00380168
-0.00604867
-0.00793447
-0.00946383
-0.0106646
-0.011563
-0.0121813
-0.0125394
-0.0126543
-0.0125404
-0.0122096
-0.0116714
-0.0109334
-0.0100019
-0.00888217
-0.00757926
-0.00609836
-0.00444549
-0.00262804
-0.000655329
0.00146088
0.00370591
0.0060618
0.00850698
0.0110161
0.0135599
0.0161054
0.0186159
0.0210516
0.0233701
0.025527
0.0274774
0.0291763
0.0305802
0.0316487
0.0323453
0.0326391
0.0325057
0.0319285
0.0308991
0.0294179
0.0274916
0.025135
0.0223938
0.0193189
0.0156279
0.0110421
0.00431457
-0.000251333
-0.0037377
-0.00648054
-0.00883295
-0.0108011
-0.0123911
-0.0136337
-0.0145577
-0.0151876
-0.015545
-0.0156485
-0.0155136
-0.0151528
-0.014576
-0.0137909
-0.0128033
-0.0116182
-0.0102397
-0.00867226
-0.00692083
-0.00499181
-0.00289352
-0.000636798
0.00176443
0.00429269
0.00692664
0.00964064
0.0124048
0.0151846
0.0179416
0.0206333
0.0232138
0.0256347
0.027846
0.0297974
0.0314395
0.0327253
0.0336121
0.0340627
0.0340468
0.0335429
0.0325385
0.0310309
0.0290256
0.0265372
0.0236146
0.0203133
0.016327
0.0113545
0.00168283
-0.00311855
-0.00677745
-0.00964775
-0.0121021
-0.014148
-0.0157934
-0.0170717
-0.0180144
-0.0186486
-0.0189977
-0.0190818
-0.0189177
-0.0185186
-0.0178946
-0.0170535
-0.0160009
-0.0147408
-0.0132768
-0.0116122
-0.0097507
-0.00769759
-0.00545994
-0.00304745
-0.000473039
0.00224656
0.00509052
0.00803309
0.0110438
0.0140871
0.0171225
0.0201049
0.0229848
0.0257094
0.0282234
0.0304704
0.0323944
0.0339412
0.0350607
0.0357083
0.035847
0.035449
0.0344967
0.0329841
0.030914
0.0283005
0.0251961
0.0216606
0.0173615
0.0119732
-0.00147244
-0.00651033
-0.0103411
-0.0133366
-0.0158891
-0.0180078
-0.0197022
-0.0210089
-0.0219625
-0.0225923
-0.022924
-0.0229796
-0.0227769
-0.02233
-0.0216495
-0.0207429
-0.0196156
-0.018271
-0.0167115
-0.0149392
-0.0129566
-0.0107674
-0.00837722
-0.00579432
-0.00303033
-0.000100826
0.00297384
0.00616847
0.00945224
0.0127887
0.0161355
0.0194448
0.0226637
0.0257346
0.0285967
0.0311868
0.0334415
0.0352985
0.0366992
0.0375904
0.0379271
0.0376738
0.0368068
0.0353151
0.0331986
0.03047
0.0271848
0.0234076
0.018777
0.0129409
-0.00518401
-0.0104607
-0.0144634
-0.0175819
-0.0202286
-0.0224142
-0.0241504
-0.025477
-0.0264318
-0.0270469
-0.0273506
-0.0273667
-0.0271145
-0.026609
-0.0258613
-0.024879
-0.0236668
-0.0222275
-0.0205624
-0.0186721
-0.0165576
-0.0142208
-0.0116656
-0.00889841
-0.00592926
-0.00277229
0.000553406
0.00402319
0.00760637
0.0112658
0.0149577
0.0186317
0.0222312
0.025694
0.0289531
0.0319383
0.0345778
0.0368002
0.0385372
0.0397257
0.0403108
0.0402481
0.039506
0.0380674
0.0359278
0.0330975
0.029635
0.0256093
0.0206276
0.0143083
-0.00948606
-0.0150054
-0.019181
-0.0224206
-0.025157
-0.027403
-0.0291721
-0.0305082
-0.0314525
-0.0320405
-0.0323032
-0.0322667
-0.0319521
-0.0313754
-0.0305483
-0.0294785
-0.0281704
-0.0266257
-0.0248445
-0.0228258
-0.0205689
-0.0180736
-0.0153415
-0.0123771
-0.00918814
-0.00578693
-0.00219095
0.00157633
0.00548474
0.00949695
0.013568
0.0176454
0.021669
0.0255717
0.0292804
0.032717
0.0358008
0.0384502
0.0405857
0.0421328
0.0430249
0.0432068
0.0426371
0.0412907
0.0391571
0.0362433
0.0326098
0.0283304
0.0229769
0.0161363
-0.0144145
-0.0201827
-0.0245331
-0.0278921
-0.0307133
-0.0330115
-0.034803
-0.0361358
-0.0370553
-0.0376008
-0.0378066
-0.0377016
-0.0373088
-0.0366459
-0.0357252
-0.0345546
-0.033138
-0.0314762
-0.0295679
-0.0274104
-0.0250007
-0.0223363
-0.0194164
-0.0162426
-0.0128204
-0.00915937
-0.005275
-0.001189
0.00306963
0.00746387
0.0119482
0.0164682
0.0209606
0.0253535
0.0295674
0.0335162
0.0371094
0.040254
0.0428579
0.0448334
0.0461002
0.0465898
0.0462489
0.0450421
0.0429508
0.0399772
0.0361832
0.0316465
0.0259003
0.018497
-0.0200075
-0.0260333
-0.0305622
-0.0340389
-0.0369391
-0.0392799
-0.0410806
-0.0423941
-0.0432709
-0.0437548
-0.043884
-0.0436907
-0.0432008
-0.0424335
-0.0414022
-0.0401151
-0.0385757
-0.0367838
-0.0347365
-0.0324291
-0.0298562
-0.0270126
-0.0238945
-0.0205004
-0.0168325
-0.0128977
-0.00870834
-0.00428385
0.000348599
0.00515306
0.010084
0.0150858
0.0200924
0.0250276
0.0298054
0.0343313
0.0385043
0.0422191
0.0453695
0.0478524
0.0495715
0.0504424
0.050397
0.0493869
0.047383
0.0443803
0.040441
0.0356461
0.0294862
0.0214758
-0.026306
-0.0326023
-0.0373151
-0.0409082
-0.0438803
-0.0462515
-0.0480447
-0.0493187
-0.0501301
-0.0505282
-0.0505561
-0.0502503
-0.0496395
-0.0487456
-0.0475832
-0.046161
-0.044482
-0.0425452
-0.0403457
-0.0378768
-0.0351301
-0.0320974
-0.0287714
-0.025147
-0.0212227
-0.0170015
-0.0124924
-0.00771156
-0.0026835
0.0025577
0.0079674
0.0134895
0.0190559
0.0245864
0.0299889
0.0351604
0.039989
0.0443558
0.0481392
0.0512184
0.0534785
0.0548163
0.0551451
0.0544004
0.0525392
0.0495468
0.0454835
0.0404333
0.0338388
0.0251737
-0.033355
-0.0399395
-0.044844
-0.0485521
-0.0515875
-0.0539734
-0.0557377
-0.0569465
-0.0576637
-0.0579454
-0.057841
-0.0573919
-0.0566312
-0.0555833
-0.0542649
-0.0526851
-0.0508468
-0.0487477
-0.0463812
-0.0437379
-0.0408063
-0.0375747
-0.0340317
-0.0301681
-0.025978
-0.0214598
-0.0166184
-0.0114656
-0.00602252
-0.000320288
0.0055983
0.0116777
0.0178486
0.0240277
0.0301173
0.036006
0.0415707
0.0466783
0.0511898
0.0549648
0.0578669
0.0597702
0.0605659
0.0601688
0.0585182
0.0555857
0.0514279
0.0461296
0.0390805
0.0297097
-0.0412044
-0.0481017
-0.0532087
-0.0570304
-0.0601176
-0.0624981
-0.0642059
-0.0653161
-0.0659019
-0.0660283
-0.0657523
-0.0651218
-0.0641748
-0.0629394
-0.0614344
-0.0596699
-0.0576487
-0.0553672
-0.0528166
-0.0499846
-0.0468563
-0.0434158
-0.0396473
-0.0355367
-0.0310728
-0.0262491
-0.021065
-0.0155275
-0.00965278
-0.00346814
0.00298672
0.00965803
0.0164766
0.0233569
0.0301964
0.0368762
0.0432617
0.0492051
0.0545488
0.0591304
0.0627887
0.0653712
0.0667424
0.0667911
0.0654339
0.062624
0.0584107
0.052878
0.0453555
0.0352239
-0.0499118
-0.0571548
-0.062479
-0.0664121
-0.0695361
-0.0718844
-0.0734993
-0.0744677
-0.0748746
-0.0747961
-0.074299
-0.073439
-0.0722606
-0.0707964
-0.0690677
-0.067086
-0.0648537
-0.062366
-0.0596116
-0.0565748
-0.0532369
-0.0495773
-0.0455751
-0.0412105
-0.0364668
-0.031331
-0.0257966
-0.0198644
-0.013545
-0.00686006
0.000154974
0.00744957
0.0149561
0.0225883
0.0302403
0.0377862
0.0450807
0.0519609
0.0582495
0.0637601
0.0683033
0.0716957
0.0737693
0.0743811
0.073418
0.0708094
0.0665922
0.0608461
0.0528335
0.0418817
-0.0595445
-0.0671775
-0.072738
-0.0767791
-0.079919
-0.0821992
-0.0836734
-0.0844437
-0.0846105
-0.0842639
-0.083483
-0.0823339
-0.0808686
-0.0791249
-0.0771276
-0.0748895
-0.0724129
-0.069691
-0.06671
-0.0634504
-0.0598888
-0.0559993
-0.0517554
-0.0471311
-0.0421027
-0.0366507
-0.0307612
-0.0244279
-0.0176542
-0.0104552
-0.00286043
0.00508464
0.0133156
0.0217475
0.0302726
0.0387596
0.0470536
0.0549768
0.0623317
0.0689058
0.0744784
0.0788302
0.0817544
0.0830688
0.082623
0.0803137
0.0761598
0.0702318
0.0617151
0.0498782
-0.0701838
-0.0782656
-0.0840867
-0.0882297
-0.0913566
-0.0935203
-0.0947902
-0.0952887
-0.0951363
-0.0944413
-0.0932983
-0.0917859
-0.0899653
-0.087881
-0.0855613
-0.0830204
-0.0802602
-0.0772718
-0.0740381
-0.0705352
-0.0667344
-0.062604
-0.0581107
-0.0532217
-0.0479058
-0.0421356
-0.0358891
-0.0291517
-0.0219185
-0.0141964
-0.00600717
0.00261051
0.0115977
0.0208727
0.0303284
0.0398303
0.0492154
0.0582921
0.0668427
0.0746272
0.0813905
0.0868723
0.0908202
0.0930036
0.0932247
0.0913377
0.0873343
0.0812691
0.0722381
0.0594443
-0.0819307
-0.0905383
-0.0966503
-0.100884
-0.103957
-0.105938
-0.106919
-0.107049
-0.106476
-0.105331
-0.103728
-0.101761
-0.0995022
-0.0970037
-0.0942977
-0.0913998
-0.0883106
-0.0850188
-0.081503
-0.0777342
-0.0736775
-0.0692945
-0.0645447
-0.0593871
-0.0537825
-0.0476947
-0.0410924
-0.0339519
-0.0262583
-0.0180091
-0.00921625
9.03201e-05
0.00985956
0.0200158
0.0304552
0.0410428
0.0516102
0.0619541
0.0718373
0.0809918
0.0891254
0.0959317
0.101105
0.104356
0.105427
0.104116
0.100376
0.0942359
0.0846858
0.070855
-0.0949129
-0.104147
-0.110587
-0.114893
-0.117852
-0.119559
-0.120138
-0.119774
-0.118649
-0.116926
-0.114741
-0.112208
-0.109412
-0.106412
-0.103245
-0.0999279
-0.0964586
-0.0928221
-0.0889919
-0.0849327
-0.0806026
-0.0759555
-0.0709423
-0.0655138
-0.0596213
-0.0532189
-0.0462656
-0.0387267
-0.0305767
-0.0218017
-0.0124022
-0.00239704
0.00817329
0.0192421
0.0307124
0.0424524
0.0542916
0.0660181
0.0773775
0.0880743
0.0977774
0.10613
0.112763
0.117319
0.119464
0.118924
0.115595
0.109465
0.0993982
0.0844388
-0.109296
-0.119288
-0.126098
-0.130443
-0.133202
-0.13451
-0.134534
-0.133511
-0.131668
-0.129204
-0.126289
-0.123056
-0.119604
-0.116002
-0.112289
-0.108482
-0.104576
-0.10055
-0.0963712
-0.0919963
-0.0873753
-0.082453
-0.0771713
-0.0714711
-0.0652938
-0.0585831
-0.0512868
-0.0433587
-0.0347612
-0.0254674
-0.0154648
-0.00475842
0.00662441
0.0186296
0.0311708
0.0441238
0.0573208
0.0705458
0.0835307
0.0959549
0.107448
0.117598
0.125968
0.132113
0.135609
0.136084
0.133358
0.127357
0.116787
0.100592
-0.125301
-0.136221
-0.143448
-0.147775
-0.150208
-0.150941
-0.150205
-0.148306
-0.145531
-0.142128
-0.1383
-0.134206
-0.129962
-0.125642
-0.121289
-0.116915
-0.112512
-0.10805
-0.103487
-0.0987722
-0.0938439
-0.0886374
-0.0830841
-0.0771142
-0.0706583
-0.0636488
-0.0560216
-0.047718
-0.0386871
-0.0288877
-0.0182922
-0.00688984
0.00530858
0.0182651
0.0319088
0.046128
0.0607637
0.0756017
0.0903662
0.104716
0.118242
0.130477
0.140904
0.148983
0.154172
0.155977
0.154108
0.148399
0.137356
0.119798
-0.143222
-0.15529
-0.16298
-0.167194
-0.169115
-0.169028
-0.167256
-0.164199
-0.160222
-0.15563
-0.150671
-0.14553
-0.140336
-0.135171
-0.130074
-0.125054
-0.120091
-0.115147
-0.110168
-0.105091
-0.0998426
-0.0943463
-0.0885221
-0.0822884
-0.0755641
-0.0682695
-0.0603281
-0.0516678
-0.0422233
-0.0319379
-0.0207672
-0.00868209
0.00432588
0.0182391
0.0330068
0.0485364
0.0646846
0.0812471
0.0979482
0.114433
0.13026
0.144906
0.15777
0.168199
0.17551
0.17905
0.178378
0.17319
0.161729
0.142654
-0.163465
-0.176965
-0.185157
-0.189097
-0.190229
-0.188976
-0.185796
-0.181213
-0.175692
-0.169611
-0.163262
-0.156858
-0.150541
-0.144392
-0.138446
-0.132698
-0.127117
-0.121649
-0.116227
-0.110771
-0.105196
-0.09941
-0.0933211
-0.0868349
-0.0798578
-0.0722975
-0.064064
-0.0550716
-0.0452395
-0.0344948
-0.0227744
-0.0100289
0.00377261
0.0186369
0.0345389
0.051412
0.0691372
0.08753
0.106326
0.125167
0.14359
0.161018
0.176765
0.190051
0.200024
0.205829
0.206816
0.202476
0.190694
0.169909
-0.186598
-0.201896
-0.210594
-0.213994
-0.213924
-0.211017
-0.205926
-0.199341
-0.191851
-0.183916
-0.175878
-0.167973
-0.160345
-0.153071
-0.146171
-0.139621
-0.133371
-0.127348
-0.121465
-0.115624
-0.109724
-0.103658
-0.0973187
-0.0905992
-0.0833921
-0.075592
-0.0670956
-0.0578025
-0.0476164
-0.0364469
-0.0242112
-0.0108377
0.0037302
0.0195276
0.0365607
0.0547968
0.074151
0.0944709
0.115518
0.136946
0.158285
0.178916
0.198073
0.214838
0.228161
0.23693
0.240211
0.237196
0.225261
0.202527
-0.213431
-0.23099
-0.240132
-0.242548
-0.240652
-0.235403
-0.227724
-0.218525
-0.208543
-0.198326
-0.188261
-0.178595
-0.169467
-0.160932
-0.152984
-0.145572
-0.138619
-0.132025
-0.125678
-0.119461
-0.113252
-0.106927
-0.100363
-0.0934396
-0.0860348
-0.07803
-0.0693082
-0.0597545
-0.0492568
-0.0377064
-0.0250002
-0.0110423
0.00425163
0.0209493
0.0390943
0.0586957
0.079714
0.102043
0.125489
0.14974
0.174339
0.19865
0.221836
0.242842
0.260395
0.273063
0.279532
0.278551
0.266758
0.241777
-0.245152
-0.265549
-0.274916
-0.275609
-0.270945
-0.262381
-0.251211
-0.23862
-0.225513
-0.212524
-0.200065
-0.188376
-0.177567
-0.167654
-0.158589
-0.150282
-0.142616
-0.13546
-0.12867
-0.122104
-0.115619
-0.109073
-0.102325
-0.0952389
-0.0876804
-0.0795169
-0.070618
-0.0608543
-0.0500979
-0.038222
-0.0251023
-0.0106178
0.00534604
0.0228932
0.0421101
0.0630564
0.0857502
0.110149
0.136125
0.163429
0.191649
0.220168
0.248107
0.274291
0.297204
0.315034
0.325964
0.328097
0.316969
0.289389
-0.283558
-0.307462
-0.316522
-0.314253
-0.305395
-0.292144
-0.276287
-0.259337
-0.242365
-0.226064
-0.210837
-0.19688
-0.184242
-0.172873
-0.162664
-0.153467
-0.145116
-0.137437
-0.130253
-0.123394
-0.11669
-0.109979
-0.103105
-0.0959148
-0.0882613
-0.0799988
-0.0709839
-0.0610735
-0.0501244
-0.0379923
-0.0245314
-0.00959506
0.00696294
0.0252857
0.045508
0.0677483
0.0920952
0.118589
0.147194
0.177758
0.209963
0.243258
0.276783
0.30928
0.339005
0.363713
0.380942
0.387874
0.378365
0.347825
-0.331471
-0.359536
-0.367109
-0.359804
-0.344597
-0.324744
-0.302649
-0.280167
-0.258499
-0.238331
-0.219993
-0.203577
-0.189025
-0.176188
-0.164867
-0.154841
-0.145881
-0.137764
-0.130273
-0.123205
-0.116365
-0.109571
-0.102649
-0.0954319
-0.0877589
-0.0794729
-0.0704184
-0.0604398
-0.0493797
-0.0370771
-0.0233657
-0.00807354
0.00897812
0.0279734
0.0490996
0.0725413
0.0984706
0.12703
0.158306
0.192288
0.228809
0.267463
0.307493
0.347657
0.386042
0.419958
0.446165
0.460565
0.45445
0.420757
-0.393535
-0.426003
-0.429608
-0.413795
-0.389004
-0.359922
-0.329632
-0.300268
-0.273039
-0.248498
-0.226795
-0.207835
-0.191391
-0.17717
-0.164856
-0.154133
-0.144702
-0.136282
-0.128613
-0.121458
-0.114597
-0.107827
-0.100959
-0.0938112
-0.086213
-0.0779965
-0.0689959
-0.0590449
-0.0479736
-0.0356058
-0.0217568
-0.00623015
0.0111843
0.0307122
0.0525955
0.0770906
0.104464
0.134979
0.168877
0.206337
0.247418
0.291963
0.33946
0.388838
0.438181
0.484444
0.523542
0.549686
0.550322
0.513989
-0.477827
-0.513342
-0.507858
-0.47777
-0.438626
-0.39682
-0.35599
-0.318308
-0.284735
-0.255477
-0.230338
-0.208926
-0.190768
-0.175381
-0.162302
-0.151107
-0.141415
-0.132885
-0.125214
-0.118133
-0.111397
-0.104787
-0.0980967
-0.0911375
-0.083728
-0.0756925
-0.0668577
-0.0570486
-0.0460856
-0.0337801
-0.0199313
-0.00432128
0.0132889
0.0331645
0.0556013
0.0809299
0.109517
0.141764
0.178094
0.218929
0.26464
0.315449
0.371283
0.431518
0.494546
0.557282
0.614931
0.659698
0.673545
0.637313
-0.599167
-0.631481
-0.606409
-0.552617
-0.49234
-0.433429
-0.379515
-0.332238
-0.291847
-0.257867
-0.22954
-0.206037
-0.186562
-0.170399
-0.156917
-0.145577
-0.135914
-0.12753
-0.120084
-0.113276
-0.106844
-0.100554
-0.0941916
-0.0875599
-0.0804722
-0.0727481
-0.0642094
-0.0546762
-0.043962
-0.0318698
-0.0181865
-0.00267767
0.01492
0.0349057
0.0576245
0.083477
0.11293
0.146529
0.1849
0.228751
0.278847
0.335947
0.400667
0.473214
0.552866
0.637187
0.721339
0.795726
0.835367
0.808179
-0.784971
-0.795118
-0.729712
-0.637376
-0.546865
-0.465892
-0.396644
-0.33912
-0.292106
-0.253993
-0.223203
-0.198338
-0.178219
-0.161872
-0.148498
-0.137446
-0.128181
-0.120259
-0.113307
-0.107007
-0.101086
-0.0953016
-0.0894358
-0.083289
-0.0766732
-0.0694072
-0.061312
-0.0522062
-0.0419011
-0.0301958
-0.0168706
-0.00168046
0.015654
0.0354572
0.0581124
0.0840786
0.113912
0.148291
0.188047
0.234195
0.287959
0.350774
0.42423
0.509876
0.608734
0.720369
0.841596
0.962578
1.05175
1.05746
-1.08575
-1.02403
-0.880522
-0.72831
-0.596342
-0.488475
-0.402735
-0.335556
-0.283181
-0.242338
-0.210397
-0.185306
-0.165487
-0.149729
-0.137092
-0.126843
-0.118397
-0.111286
-0.105121
-0.0995806
-0.0943879
-0.0893021
-0.0841079
-0.0786086
-0.0726197
-0.0659636
-0.0584649
-0.0499449
-0.0402177
-0.0290837
-0.0163235
-0.00168965
0.0151031
0.0343912
0.0565796
0.0821645
0.111765
0.146165
0.186369
0.23368
0.289791
0.356903
0.437831
0.536046
0.655511
0.800015
0.971186
1.16276
1.34307
1.4391
-1.61658
-1.33974
-1.04955
-0.811836
-0.628304
-0.491499
-0.391137
-0.317338
-0.262572
-0.221517
-0.190433
-0.166676
-0.148358
-0.134113
-0.12293
-0.114045
-0.106867
-0.100928
-0.095851
-0.0913218
-0.0870749
-0.0828797
-0.0785305
-0.0738399
-0.068632
-0.0627373
-0.0559881
-0.0482138
-0.039236
-0.0288627
-0.0168821
-0.00305409
0.0128999
0.0313115
0.0525842
0.0772206
0.10586
0.139334
0.178747
0.225593
0.281939
0.350683
0.435927
0.543487
0.681593
0.861298
1.09396
1.38517
1.73196
2.07476
-2.68787
-1.74553
-1.16636
-0.825526
-0.598933
-0.446121
-0.343312
-0.272537
-0.222427
-0.186171
-0.159499
-0.139624
-0.124665
-0.113317
-0.104643
-0.097946
-0.0926934
-0.0884667
-0.0849277
-0.081796
-0.0788332
-0.0758316
-0.0726054
-0.0689841
-0.0648074
-0.0599204
-0.0541694
-0.0473974
-0.0394411
-0.0301242
-0.0192528
-0.00660747
0.00806642
0.0250715
0.0447767
0.0676429
0.0942607
0.125407
0.16213
0.205892
0.258787
0.323924
0.406055
0.512706
0.656333
0.857213
1.14331
1.55712
2.22431
3.27993
-4.53359
-2.1599
-1.09204
-0.671974
-0.452064
-0.321568
-0.242142
-0.191172
-0.156542
-0.132137
-0.114586
-0.101837
-0.092552
-0.0858113
-0.0809495
-0.0774647
-0.0749652
-0.0731358
-0.0717162
-0.0704858
-0.0692532
-0.0678485
-0.0661171
-0.0639155
-0.0611069
-0.0575581
-0.0531365
-0.0477075
-0.0411292
-0.0332513
-0.023909
-0.0129185
-6.88233e-05
0.014887
0.0322457
0.0523723
0.0757278
0.10291
0.13472
0.172265
0.21714
0.27176
0.340006
0.42863
0.550583
0.731355
1.01871
1.53395
2.71826
5.21499
)
;

boundaryField
{
    movingWall
    {
        type            zeroGradient;
    }
    fixedWalls
    {
        type            zeroGradient;
    }
    frontAndBack
    {
        type            empty;
    }
}


// ************************************************************************* //
