/*--------------------------------*- C++ -*----------------------------------*\
| =========                 |                                                 |
| \\      /  F ield         | OpenFOAM: The Open Source CFD Toolbox           |
|  \\    /   O peration     | Version:  2312                                  |
|   \\  /    A nd           | Website:  www.openfoam.com                      |
|    \\/     M anipulation  |                                                 |
\*---------------------------------------------------------------------------*/
FoamFile
{
    version     2.0;
    format      ascii;
    arch        "LSB;label=32;scalar=64";
    class       volScalarField;
    location    "50";
    object      p;
}
// * * * * * * * * * * * * * * * * * * * * * * * * * * * * * * * * * * * * * //

dimensions      [0 2 -2 0 0 0 0];

internalField   nonuniform List<scalar> 
2601
(
3.19198e-07
-0.000220499
-0.00090184
-0.00192538
-0.00312961
-0.00438715
-0.00559995
-0.00669259
-0.00760881
-0.00830798
-0.00876189
-0.00895229
-0.00886893
-0.00850809
-0.00787137
-0.00696487
-0.00579849
-0.00438545
-0.00274197
-0.000886938
0.00115818
0.00336955
0.00572108
0.0081845
0.0107296
0.0133244
0.0159353
0.0185277
0.0210658
0.0235139
0.0258363
0.0279983
0.0299665
0.0317103
0.0332019
0.0344177
0.035339
0.0359528
0.036253
0.0362407
0.0359259
0.0353275
0.0344751
0.0334098
0.0321856
0.0308714
0.0295516
0.0283311
0.0273332
0.0267082
0.026545
0.00022098
3.55785e-07
-0.000563456
-0.00138099
-0.00233767
-0.00334105
-0.00431404
-0.00519372
-0.00593072
-0.0064877
-0.00683751
-0.00696159
-0.00684855
-0.00649303
-0.0058947
-0.00505757
-0.00398936
-0.00270105
-0.00120656
0.000477525
0.00233216
0.00433598
0.00646549
0.00869518
0.0109977
0.0133442
0.0157043
0.0180467
0.0203396
0.0225507
0.0246484
0.0266017
0.0283815
0.0299607
0.0313155
0.0324257
0.0332758
0.0338556
0.0341611
0.0341951
0.0339679
0.0334984
0.0328144
0.0319534
0.0309636
0.029904
0.0288452
0.0278684
0.0270642
0.0265427
0.0263817
0.000903657
0.000563182
-5.43453e-06
-0.000744606
-0.00158204
-0.0024476
-0.00328008
-0.00402813
-0.00465004
-0.00511312
-0.0053929
-0.0054721
-0.0053396
-0.00498964
-0.00442108
-0.00363672
-0.00264289
-0.00144902
-6.73103e-05
0.00148745
0.00319811
0.00504531
0.00700765
0.00906181
0.0111828
0.013344
0.0155177
0.0176753
0.0197874
0.0218247
0.0237582
0.0255597
0.0272029
0.0286633
0.0299195
0.0309536
0.0317521
0.0323062
0.0326132
0.0326763
0.0325057
0.0321191
0.0315419
0.0308079
0.0299592
0.0290465
0.0281282
0.0272696
0.0265412
0.0260187
0.0257596
0.00194101
0.00138541
0.000722517
-2.80337e-05
-0.000834835
-0.00164383
-0.00240619
-0.00308114
-0.00363473
-0.00403969
-0.0042752
-0.00432625
-0.00418301
-0.00384023
-0.00329668
-0.00255468
-0.00161974
-0.000500178
0.000793048
0.00224659
0.00384486
0.00557016
0.00740283
0.00932139
0.0113027
0.0133222
0.0153541
0.0173717
0.0193478
0.021255
0.0230663
0.0247557
0.0262983
0.0276716
0.0288557
0.029834
0.0305941
0.0311279
0.031433
0.0315123
0.0313753
0.0310379
0.0305229
0.02986
0.0290857
0.0282432
0.0273807
0.0265523
0.0258145
0.0252085
0.024761
0.0031838
0.00236208
0.00155549
0.000744509
-8.00384e-05
-0.000877361
-0.00160918
-0.00224455
-0.00275718
-0.00312543
-0.00333252
-0.00336624
-0.00321858
-0.00288529
-0.00236552
-0.00166148
-0.00077815
0.000276919
0.00149383
0.00286045
0.00436258
0.00598401
0.00770665
0.00951066
0.0113746
0.0132756
0.0151895
0.0170915
0.0189559
0.020757
0.0224693
0.0240682
0.0255303
0.0268342
0.0279609
0.0288948
0.0296237
0.03014
0.030441
0.0305289
0.0304119
0.0301041
0.0296252
0.0290011
0.028263
0.0274468
0.0265923
0.0257441
0.0249475
0.0242087
0.0235207
0.00451761
0.00340828
0.00242848
0.00152306
0.00064513
-0.000175098
-0.00090806
-0.00153162
-0.00202658
-0.00237678
-0.0025696
-0.00259587
-0.00244966
-0.00212806
-0.00163092
-0.000960631
-0.000121952
0.000878146
0.00203058
0.00332428
0.00474619
0.00628144
0.00791333
0.00962345
0.0113918
0.013197
0.0150164
0.0168265
0.0186029
0.0203212
0.021957
0.0234867
0.0248878
0.0261396
0.0272235
0.0281243
0.0288298
0.0293321
0.0296279
0.0297184
0.0296104
0.0293155
0.0288509
0.0282385
0.0275047
0.0266795
0.0257949
0.0248885
0.0239972
0.0230936
0.0221386
0.00585404
0.00445217
0.00328291
0.00225992
0.0013025
0.000432807
-0.00032656
-0.000961069
-0.00145793
-0.0018061
-0.00199695
-0.00202439
-0.00188474
-0.0015766
-0.00110073
-0.000459913
0.000341105
0.00129572
0.00239548
0.00363015
0.00498773
0.00645442
0.00801475
0.00965155
0.0113461
0.0130781
0.0148262
0.0165679
0.0182799
0.0199386
0.0215203
0.0230021
0.0243618
0.0255789
0.026635
0.0275146
0.0282051
0.0286981
0.0289891
0.0290782
0.0289703
0.0286749
0.0282064
0.0275832
0.0268276
0.0259643
0.0250195
0.0240254
0.0230131
0.0219257
0.0206968
0.00712319
0.00543267
0.00406684
0.00291211
0.0018577
0.00091975
0.000115379
-0.000547352
-0.0010613
-0.00142004
-0.00161873
-0.00165423
-0.00152511
-0.00123155
-0.000775321
-0.000159762
0.000610264
0.00152835
0.00258655
0.00377531
0.00508347
0.00649821
0.00800506
0.00958792
0.0112291
0.0129093
0.0146081
0.0163037
0.0179737
0.0195948
0.0211439
0.0225981
0.0239354
0.025135
0.0261783
0.027049
0.0277339
0.0282235
0.028512
0.0285979
0.0284843
0.0281786
0.0276924
0.0270412
0.0262436
0.0253202
0.0242925
0.0231894
0.0220379
0.0207557
0.0192524
0.00826936
0.00629814
0.00473424
0.00343987
0.00227739
0.00125845
0.000395908
-0.000307642
-0.000849977
-0.00122881
-0.00144274
-0.00149142
-0.00137555
-0.00109689
-0.000658272
-6.36399e-05
0.00068192
0.00157211
0.00259933
0.00375462
0.00502752
0.00640603
0.00787656
0.00942388
0.0110311
0.0126799
0.0143503
0.0160213
0.0176706
0.0192755
0.0208128
0.0222595
0.0235931
0.0247925
0.0258383
0.0267132
0.0274028
0.0278964
0.0281865
0.02827
0.028148
0.0278256
0.0273121
0.0266202
0.0257657
0.0247657
0.0236384
0.0224107
0.0211079
0.0196246
0.0178499
0.00924716
0.00700451
0.00524415
0.00380644
0.00252933
0.00142116
0.000491518
-0.000261673
-0.000840449
-0.00124618
-0.00148058
-0.00154585
-0.00144472
-0.00118043
-0.000756865
-0.000178581
0.000549062
0.0014198
0.00242631
0.00356011
0.00481135
0.00616873
0.0076194
0.00914885
0.0107409
0.0123778
0.0140402
0.0157072
0.017357
0.0189666
0.0205127
0.0219718
0.0233208
0.0245378
0.0256021
0.0264952
0.0272014
0.027708
0.0280061
0.0280904
0.02796
0.0276179
0.027071
0.0263298
0.0254076
0.024319
0.0230799
0.0217164
0.0202533
0.0185652
0.0165224
0.0100184
0.00751343
0.00555983
0.00397774
0.00258263
0.00138038
0.00037798
-0.000430612
-0.00105115
-0.00148825
-0.00174639
-0.00183013
-0.00174401
-0.0014927
-0.00108104
-0.000514195
0.000202188
0.00106185
0.0020577
0.00318164
0.00442437
0.00577521
0.00722192
0.00875062
0.0103457
0.0119898
0.013664
0.0153475
0.0170184
0.0186535
0.0202291
0.0217209
0.023105
0.0243579
0.0254579
0.0263847
0.0271208
0.0276517
0.0279662
0.0280571
0.0279211
0.0275593
0.0269763
0.0261805
0.0251835
0.0239979
0.022638
0.0211303
0.0195003
0.017604
0.015295
0.0105497
0.00779068
0.00564769
0.0039219
0.00240763
0.0011089
3.06378e-05
-0.000836665
-0.00150204
-0.00197296
-0.00225642
-0.00235906
-0.00228712
-0.00204653
-0.00164305
-0.00108239
-0.000370456
0.000486486
0.00148155
0.00260701
0.00385404
0.00521248
0.00667068
0.00821527
0.00983109
0.0115011
0.0132066
0.0149268
0.0166395
0.0183212
0.0199473
0.0214926
0.022932
0.0242405
0.0253946
0.0263721
0.0271534
0.0277217
0.0280636
0.0281694
0.0280337
0.0276551
0.0270363
0.0261839
0.0251079
0.0238196
0.0223324
0.020674
0.0188715
0.0167635
0.0141873
0.010811
0.0078049
0.00547652
0.00360867
0.0019756
0.000579786
-0.000575514
-0.0015029
-0.00221432
-0.00271985
-0.00302871
-0.00314945
-0.00308983
-0.00285693
-0.00245733
-0.00189723
-0.00118275
-0.000320147
0.000683905
0.00182202
0.00308583
0.00446569
0.00595044
0.00752719
0.00918115
0.0108956
0.0126517
0.0144287
0.0162041
0.0179536
0.0196518
0.0212722
0.0227883
0.0241732
0.0254014
0.0264486
0.0272925
0.0279138
0.0282965
0.0284284
0.0283014
0.027912
0.0272607
0.0263525
0.0251959
0.0238016
0.0221826
0.0203681
0.0183878
0.0160632
0.0132162
0.0107738
0.00752666
0.00501665
0.00300897
0.00125843
-0.000233769
-0.00146581
-0.00245311
-0.0032103
-0.00374979
-0.00408288
-0.00421981
-0.00416973
-0.00394078
-0.00354022
-0.00297471
-0.00225052
-0.00137384
-0.00035112
0.000810613
0.00210344
0.0035182
0.00504424
0.0066691
0.00837833
0.0101554
0.0119814
0.0138356
0.0156947
0.0175338
0.0193263
0.0210445
0.0226599
0.0241437
0.0254679
0.0266056
0.0275319
0.0282244
0.0286642
0.0288361
0.0287294
0.028338
0.0276603
0.0266997
0.0254635
0.0239619
0.0222077
0.0202327
0.0180692
0.0155219
0.0123968
0.0104112
0.00692763
0.00423942
0.00209439
0.000228365
-0.00135858
-0.00266596
-0.00371179
-0.00451324
-0.00508487
-0.0054399
-0.00559015
-0.00554603
-0.0053166
-0.00490978
-0.00433255
-0.00359129
-0.00269209
-0.00164111
-0.000444992
0.000888828
0.00235171
0.00393347
0.00562212
0.00740354
0.00926133
0.0111767
0.0131283
0.0150926
0.0170438
0.0189538
0.0207935
0.0225322
0.0241391
0.0255832
0.0268349
0.0278658
0.0286505
0.0291665
0.0293956
0.0293238
0.0289424
0.0282474
0.0272405
0.025928
0.0243194
0.0224282
0.0202884
0.0179358
0.0151579
0.0117443
0.00969634
0.00598002
0.00311663
0.000836823
-0.00114225
-0.00282164
-0.00420206
-0.00530408
-0.00614723
-0.00674818
-0.00712192
-0.00728176
-0.00723927
-0.00700436
-0.0065855
-0.00598994
-0.0052241
-0.00429389
-0.00320515
-0.00196405
-0.000577501
0.000946405
0.00259804
0.00436589
0.00623619
0.00819275
0.0102167
0.0122865
0.014378
0.0164642
0.0185159
0.0205021
0.0223899
0.0241459
0.0257362
0.0271276
0.0282885
0.0291894
0.0298042
0.0301109
0.0300921
0.0297358
0.0290357
0.0279914
0.0266081
0.0248949
0.0228657
0.0205574
0.0180094
0.0149911
0.0112751
0.00860248
0.00465615
0.00162017
-0.000791837
-0.00288127
-0.00465027
-0.00610076
-0.00725578
-0.00813722
-0.00876375
-0.00915209
-0.009317
-0.00927112
-0.00902515
-0.00858803
-0.00796723
-0.00716913
-0.00619941
-0.00506349
-0.003767
-0.00231626
-0.00071872
0.00101662
0.00287877
0.00485444
0.00692766
0.00907962
0.0112885
0.0135294
0.0157745
0.0179931
0.0201521
0.0222166
0.0241499
0.025915
0.027475
0.0287941
0.0298388
0.0305785
0.0309869
0.0310428
0.0307305
0.0300407
0.0289709
0.0275248
0.0257111
0.023544
0.0210637
0.0183134
0.0150433
0.0110078
0.00710255
0.00292808
-0.000278328
-0.00282003
-0.00501692
-0.00687228
-0.00838927
-0.00959339
-0.0105089
-0.0111564
-0.0115544
-0.0117191
-0.0116641
-0.0114009
-0.0109389
-0.0102856
-0.00944743
-0.00842964
-0.0072372
-0.00587512
-0.00434901
-0.00266556
-0.00083305
0.0011382
0.00323543
0.00544305
0.00774235
0.0101113
0.0125245
0.014953
0.0173647
0.0197245
0.0219948
0.0241359
0.0261072
0.0278676
0.0293768
0.0305964
0.031491
0.0320294
0.0321858
0.0319402
0.0312799
0.0301996
0.0287015
0.0267934
0.02449
0.0218346
0.0188747
0.0153396
0.0109644
0.00516885
0.000767339
-0.00260775
-0.00527674
-0.00757806
-0.00951616
-0.0110955
-0.0123441
-0.0132885
-0.0139516
-0.0143536
-0.0145119
-0.0144414
-0.0141542
-0.0136601
-0.0129668
-0.0120804
-0.0110059
-0.00974773
-0.00831005
-0.00669767
-0.0049164
-0.00297365
-0.000878906
0.00135575
0.00371525
0.00618114
0.00873134
0.0113399
0.0139771
0.0166091
0.019199
0.0217063
0.0240881
0.0262997
0.0282955
0.0300302
0.03146
0.0325439
0.033245
0.0335321
0.0333804
0.0327729
0.031701
0.0301648
0.0281709
0.0257342
0.0229013
0.0197239
0.0159092
0.0111708
0.00277297
-0.0018553
-0.00539779
-0.0081918
-0.0105944
-0.0126112
-0.0142481
-0.0155358
-0.0165033
-0.0171756
-0.0175747
-0.0177196
-0.0176262
-0.0173075
-0.0167736
-0.0160323
-0.0150894
-0.0139495
-0.0126163
-0.0110932
-0.00938392
-0.00749333
-0.00542771
-0.00319557
-0.000808064
0.00172044
0.00437196
0.00712452
0.00995188
0.0128234
0.0157041
0.0185546
0.0213319
0.0239896
0.0264785
0.0287482
0.0307479
0.0324275
0.0337397
0.0346412
0.0350944
0.0350687
0.034542
0.0335016
0.0319448
0.0298766
0.0273115
0.0242996
0.020897
0.0167862
0.0116583
-0.000114432
-0.00497006
-0.00867917
-0.011596
-0.0140965
-0.0161876
-0.0178767
-0.0191972
-0.0201808
-0.0208548
-0.0212431
-0.0213665
-0.021242
-0.0208833
-0.020301
-0.019503
-0.0184949
-0.0172806
-0.0158632
-0.0142449
-0.0124285
-0.0104175
-0.00821689
-0.00583397
-0.00327875
-0.000564611
0.00229119
0.00526703
0.00833661
0.0114687
0.0146269
0.01777
0.0208521
0.0238231
0.0266294
0.0292151
0.0315231
0.0334969
0.0350816
0.0362266
0.0368869
0.0370249
0.0366124
0.0356316
0.0340759
0.0319482
0.0292621
0.026071
0.0224353
0.0180111
0.0124643
-0.00352375
-0.00860839
-0.0124839
-0.0155217
-0.0181166
-0.0202769
-0.0220118
-0.0233577
-0.0243492
-0.025016
-0.0253843
-0.0254765
-0.0253112
-0.0249029
-0.0242627
-0.0233986
-0.022316
-0.021018
-0.0195069
-0.0177839
-0.0158502
-0.0137081
-0.011361
-0.00881457
-0.00607744
-0.00316168
-8.35132e-05
0.00313614
0.0064712
0.00989004
0.0133553
0.016824
0.0202472
0.0235712
0.0267377
0.0296851
0.0323494
0.0346665
0.0365735
0.0380112
0.0389257
0.0392716
0.0390128
0.0381252
0.0365975
0.0344291
0.0316324
0.0282636
0.0243878
0.0196314
0.0136336
-0.0074866
-0.0128033
-0.0168458
-0.0200027
-0.0226881
-0.0249121
-0.0266854
-0.0280478
-0.0290372
-0.0296861
-0.0300231
-0.0300729
-0.0298554
-0.0293863
-0.0286774
-0.0277367
-0.0265692
-0.0251778
-0.0235633
-0.0217257
-0.019665
-0.0173815
-0.0148768
-0.0121549
-0.00922251
-0.00608998
-0.00277214
0.000711182
0.00433452
0.00806627
0.0118684
0.0156961
0.0194982
0.023217
0.0267894
0.0301476
0.0332204
0.0359354
0.0382203
0.0400062
0.0412293
0.0418341
0.0417755
0.0410216
0.0395546
0.0373694
0.0344762
0.0309336
0.0268112
0.0217031
0.0152193
-0.0120361
-0.0175895
-0.0218005
-0.025075
-0.0278468
-0.0301276
-0.0319305
-0.0332987
-0.0342739
-0.0348918
-0.0351841
-0.0351776
-0.0348943
-0.0343513
-0.0335609
-0.0325315
-0.031268
-0.0297722
-0.0280441
-0.0260822
-0.0238846
-0.0214497
-0.0187771
-0.0158685
-0.0127283
-0.00936485
-0.00579105
-0.00202515
0.00190848
0.00597874
0.0101473
0.0143681
0.0185876
0.0227446
0.026771
0.0305926
0.0341306
0.0373032
0.0400281
0.0422249
0.0438183
0.0447412
0.0449374
0.0443652
0.0429987
0.0408266
0.0378554
0.034146
0.0297722
0.0242924
0.0172847
-0.017207
-0.0230044
-0.0273867
-0.0307774
-0.0336307
-0.0359605
-0.0377819
-0.0391428
-0.0400887
-0.0406596
-0.0408903
-0.0408108
-0.0404453
-0.0398124
-0.0389255
-0.0377935
-0.0364209
-0.0348089
-0.0329561
-0.0308595
-0.0285151
-0.0259192
-0.0230688
-0.019963
-0.0166036
-0.0129962
-0.00915146
-0.00508533
-0.00082054
0.00361286
0.00817678
0.0128245
0.0175006
0.0221404
0.0266711
0.031012
0.0350761
0.0387716
0.0420047
0.0446827
0.0467166
0.0480257
0.0485404
0.0482068
0.0469887
0.0448666
0.041842
0.0379767
0.0333485
0.0274765
0.0199042
-0.0230368
-0.0290882
-0.0336461
-0.0371519
-0.0400813
-0.04245
-0.0442766
-0.0456135
-0.0465115
-0.0470151
-0.0471635
-0.0469902
-0.0465221
-0.0457801
-0.0447788
-0.0435276
-0.0420307
-0.0402888
-0.0382991
-0.0360568
-0.0335556
-0.0307891
-0.0277515
-0.0244389
-0.0208499
-0.016987
-0.0128577
-0.00847531
-0.00386006
0.000959724
0.0059469
0.0110547
0.0162263
0.0213943
0.0264812
0.0314
0.0360549
0.0403438
0.0441605
0.0473978
0.0499516
0.0517247
0.052632
0.0526043
0.0515923
0.0495659
0.0465191
0.0425138
0.037631
0.0313463
0.0231657
-0.0295656
-0.0358853
-0.0406254
-0.0442454
-0.0472439
-0.0496393
-0.0514537
-0.0527456
-0.053572
-0.053983
-0.0540231
-0.0537301
-0.0531345
-0.0522598
-0.0511222
-0.0497318
-0.0480929
-0.0462054
-0.044065
-0.0416647
-0.038996
-0.0360493
-0.0328157
-0.0292875
-0.0254597
-0.0213312
-0.0169056
-0.0121927
-0.00720962
-0.00198213
0.00345445
0.00905412
0.0147594
0.0205009
0.0261969
0.0317542
0.0370685
0.0420265
0.0465086
0.0503918
0.0535544
0.0558807
0.0572662
0.0576236
0.0568868
0.0550121
0.051983
0.0478599
0.0427258
0.0360084
0.0271726
-0.0368379
-0.0434457
-0.0483768
-0.0521103
-0.0551693
-0.0575754
-0.0593556
-0.0605758
-0.0613003
-0.0615866
-0.0614856
-0.0610406
-0.0602865
-0.05925
-0.0579495
-0.056396
-0.054594
-0.0525423
-0.0502353
-0.0476637
-0.0448159
-0.0416793
-0.0382409
-0.0344891
-0.0304147
-0.0260119
-0.0212801
-0.0162247
-0.0108589
-0.00520475
0.00070505
0.00682632
0.013102
0.0194614
0.0258196
0.0320775
0.0381225
0.0438301
0.0490661
0.0536904
0.0575615
0.0605419
0.0625046
0.0633399
0.0629611
0.0613062
0.0583453
0.0541343
0.0487571
0.0415876
0.0320464
-0.0449038
-0.0518263
-0.0569607
-0.0608068
-0.0639149
-0.0663111
-0.0680284
-0.0691422
-0.0697263
-0.0698471
-0.0695638
-0.0689264
-0.0679754
-0.0667414
-0.0652455
-0.0635
-0.0615095
-0.0592721
-0.0567801
-0.0540218
-0.0509825
-0.0476455
-0.0439938
-0.0400112
-0.0356834
-0.0309996
-0.0259538
-0.0205464
-0.0147855
-0.00868883
-0.00228493
0.00438489
0.0112652
0.0182853
0.0253579
0.0323791
0.0392285
0.0457701
0.0518549
0.0573242
0.0620143
0.0657631
0.0684169
0.0698389
0.0699167
0.068565
0.0657354
0.0614763
0.05587
0.0482304
0.0379297
-0.0538211
-0.061094
-0.0664478
-0.070405
-0.0735471
-0.0759059
-0.077523
-0.0784854
-0.0788795
-0.0787831
-0.0782654
-0.0773853
-0.0761899
-0.0747147
-0.072984
-0.0710117
-0.0688027
-0.0663539
-0.0636557
-0.0606933
-0.0574485
-0.0539003
-0.0500269
-0.0458067
-0.04122
-0.03625
-0.0308849
-0.0251187
-0.0189537
-0.0124018
-0.00548646
0.00175532
0.00927126
0.0169919
0.0248294
0.0326761
0.0404047
0.0478683
0.0549027
0.0613295
0.066961
0.0716069
0.0750824
0.0772182
0.07787
0.0769227
0.0743035
0.0700484
0.064235
0.0561091
0.0449901
-0.0636584
-0.0713289
-0.0769229
-0.0809884
-0.0841436
-0.0864283
-0.0878957
-0.0886484
-0.0887888
-0.0884094
-0.0875922
-0.0864068
-0.0849085
-0.0831389
-0.081126
-0.0788854
-0.0764223
-0.0737322
-0.0708031
-0.067617
-0.0641513
-0.0603802
-0.0562765
-0.0518127
-0.0469628
-0.0417034
-0.0360157
-0.0298869
-0.0233121
-0.0162962
-0.00885628
-0.00102335
0.00715502
0.0156126
0.0242624
0.0329951
0.0416776
0.0501535
0.0582437
0.0657492
0.0724565
0.0781438
0.0825905
0.0855885
0.0869541
0.0865345
0.0842244
0.080041
0.0740524
0.0654268
0.0534251
-0.074499
-0.0826292
-0.0884897
-0.092658
-0.0957968
-0.0979577
-0.0992099
-0.0996769
-0.0994818
-0.098736
-0.0975377
-0.0959697
-0.0940974
-0.0919691
-0.0896172
-0.0870594
-0.0843005
-0.0813345
-0.0781466
-0.0747146
-0.0710109
-0.0670045
-0.0626619
-0.0579492
-0.0528331
-0.0472829
-0.0412721
-0.0347799
-0.0277932
-0.0203088
-0.0123357
-0.00389734
0.00496528
0.0141912
0.0236968
0.0333728
0.0430831
0.0526629
0.0619192
0.070633
0.0785631
0.0854532
0.0910418
0.0950752
0.0973212
0.0975795
0.0957018
0.0916778
0.0855591
0.076424
0.0634682
-0.0864465
-0.0951175
-0.101277
-0.105538
-0.108618
-0.110587
-0.111537
-0.111619
-0.110984
-0.109766
-0.108085
-0.10604
-0.103707
-0.101144
-0.098386
-0.0954538
-0.0923514
-0.0890704
-0.0855922
-0.0818897
-0.0779299
-0.0736752
-0.0690853
-0.0641188
-0.0587349
-0.0528946
-0.0465628
-0.0397097
-0.032313
-0.02436
-0.0158501
-0.00679763
0.00276532
0.0127854
0.0231848
0.0338575
0.0446666
0.0554418
0.0659784
0.0760376
0.0853504
0.0936232
0.100549
0.105819
0.109145
0.110264
0.108974
0.105223
0.0990362
0.0893868
0.0753966
-0.0996332
-0.10895
-0.115447
-0.119781
-0.122743
-0.124428
-0.124959
-0.124526
-0.123315
-0.121493
-0.119204
-0.116567
-0.113671
-0.110581
-0.107341
-0.103969
-0.100469
-0.0968298
-0.0930269
-0.0890277
-0.0847925
-0.0802764
-0.0754313
-0.0702076
-0.064556
-0.0584285
-0.0517805
-0.0445724
-0.0367716
-0.0283547
-0.01931
-0.00964059
0.000632338
0.0114658
0.0227906
0.0345076
0.0464827
0.0585436
0.0704766
0.0820258
0.0928944
0.10275
0.111235
0.117979
0.122622
0.124827
0.124318
0.120988
0.11482
0.104659
0.0895416
-0.114231
-0.12433
-0.13121
-0.135584
-0.138339
-0.13961
-0.139566
-0.138448
-0.13649
-0.133899
-0.130848
-0.127479
-0.123898
-0.120179
-0.116367
-0.112483
-0.108527
-0.104482
-0.100318
-0.0959956
-0.0914659
-0.086676
-0.081569
-0.0760864
-0.0701693
-0.06376
-0.0568038
-0.0492504
-0.0410557
-0.0321845
-0.0226126
-0.01233
-0.00134446
0.010314
0.0225888
0.0353909
0.0485937
0.0620276
0.0754742
0.0886642
0.101275
0.112936
0.123233
0.131727
0.137974
0.141544
0.142063
0.139346
0.133315
0.122655
0.106303
-0.130466
-0.141524
-0.148836
-0.153192
-0.155612
-0.156289
-0.15546
-0.153436
-0.150512
-0.146945
-0.142946
-0.138681
-0.134274
-0.129807
-0.125326
-0.120851
-0.116376
-0.111877
-0.107316
-0.102643
-0.0978013
-0.0927273
-0.0873543
-0.0816136
-0.0754362
-0.0687539
-0.0615011
-0.0536159
-0.0450422
-0.0357317
-0.0256462
-0.0147607
-0.00306757
0.00941959
0.0226601
0.03658
0.0510655
0.065955
0.0810322
0.0960193
0.110573
0.124285
0.136684
0.147253
0.15545
0.160728
0.162592
0.160745
0.155014
0.143883
0.126166
-0.148646
-0.160889
-0.168681
-0.172922
-0.174816
-0.174648
-0.172751
-0.169532
-0.165365
-0.160568
-0.155397
-0.150045
-0.144652
-0.139304
-0.134049
-0.1289
-0.123843
-0.118843
-0.113851
-0.108805
-0.103637
-0.0982729
-0.0926335
-0.0866396
-0.080211
-0.0732686
-0.065735
-0.0575364
-0.0486037
-0.0388745
-0.0282954
-0.0168249
-0.00443711
0.0088734
0.023086
0.0381471
0.0539614
0.070383
0.0872052
0.10415
0.120861
0.136895
0.151727
0.164755
0.175321
0.182741
0.186358
0.185722
0.180522
0.168976
0.149735
-0.169189
-0.182909
-0.19122
-0.195183
-0.196267
-0.194901
-0.191555
-0.186763
-0.181005
-0.17467
-0.168062
-0.161404
-0.154846
-0.148478
-0.14234
-0.136435
-0.130735
-0.125192
-0.11974
-0.114306
-0.108804
-0.103149
-0.0972488
-0.0910123
-0.0843474
-0.0771631
-0.0693701
-0.0608819
-0.0516159
-0.041495
-0.0304494
-0.0184194
-0.00535897
0.0087597
0.0239403
0.0401546
0.0573334
0.0753549
0.0940318
0.113098
0.132192
0.150849
0.168491
0.184429
0.19788
0.207988
0.213891
0.214933
0.210593
0.198726
0.177764
-0.192682
-0.208252
-0.217088
-0.2205
-0.220352
-0.21729
-0.21198
-0.20513
-0.197345
-0.1891
-0.180749
-0.17254
-0.164628
-0.157095
-0.149969
-0.143232
-0.136839
-0.13072
-0.124792
-0.118962
-0.113129
-0.107192
-0.101046
-0.094585
-0.0877059
-0.080305
-0.0722806
-0.0635334
-0.0539668
-0.0434884
-0.0320113
-0.0194564
-0.0057553
0.00914513
0.025277
0.0426436
0.0612092
0.0808863
0.10152
0.122868
0.144583
0.166191
0.187074
0.206458
0.223424
0.236917
0.245815
0.249177
0.246178
0.234158
0.211227
-0.219958
-0.237853
-0.247149
-0.249556
-0.247537
-0.242075
-0.23411
-0.224576
-0.214229
-0.203638
-0.1932
-0.183177
-0.173717
-0.164882
-0.156673
-0.149046
-0.141925
-0.135215
-0.128809
-0.122592
-0.116445
-0.110247
-0.10388
-0.0972245
-0.0901629
-0.0825796
-0.0743604
-0.065393
-0.0555669
-0.0447741
-0.03291
-0.0198751
-0.00557692
0.0100656
0.0271172
0.0456187
0.0655763
0.086948
0.109625
0.133411
0.157991
0.182904
0.207514
0.230977
0.252235
0.270005
0.282847
0.289434
0.288492
0.276613
0.251407
-0.25224
-0.273046
-0.282579
-0.283224
-0.278373
-0.269514
-0.257971
-0.244959
-0.231406
-0.217967
-0.20507
-0.192966
-0.181774
-0.17152
-0.16216
-0.153608
-0.145751
-0.138461
-0.131598
-0.125024
-0.118596
-0.112177
-0.10563
-0.0988213
-0.091621
-0.0839006
-0.0755337
-0.0663951
-0.0563608
-0.0453072
-0.033112
-0.0196544
-0.00481699
0.0115118
0.0294332
0.0490311
0.0703628
0.0934443
0.118231
0.144592
0.172275
0.200868
0.229746
0.258029
0.284533
0.307732
0.325801
0.336904
0.339115
0.327904
0.300057
-0.291372
-0.31577
-0.324992
-0.32261
-0.313468
-0.299812
-0.28347
-0.265991
-0.248477
-0.23164
-0.215902
-0.201469
-0.188398
-0.176646
-0.166107
-0.156638
-0.148076
-0.140247
-0.13298
-0.126104
-0.119454
-0.112872
-0.106203
-0.0992998
-0.092019
-0.0842203
-0.0757653
-0.0665169
-0.0563379
-0.04509
-0.0326333
-0.0188259
-0.00352438
0.0134147
0.0321321
0.0527607
0.0754171
0.100189
0.127114
0.156156
0.18716
0.219807
0.25354
0.287495
0.320405
0.350513
0.375554
0.393041
0.400114
0.390536
0.359672
-0.340246
-0.368898
-0.376603
-0.369071
-0.353435
-0.333025
-0.3103
-0.287158
-0.264835
-0.244036
-0.225108
-0.208153
-0.193118
-0.179857
-0.168176
-0.157853
-0.148663
-0.140384
-0.1328
-0.125711
-0.118924
-0.11226
-0.105549
-0.0986282
-0.0913421
-0.0835391
-0.0750704
-0.065788
-0.0555425
-0.044182
-0.0315499
-0.017484
-0.00181515
0.0156329
0.0350425
0.0565998
0.0804886
0.106881
0.135918
0.167688
0.202179
0.239223
0.278411
0.318981
0.359681
0.398583
0.432971
0.459568
0.474215
0.468069
0.433983
-0.403615
-0.43676
-0.44041
-0.424179
-0.398744
-0.368896
-0.337788
-0.307606
-0.279591
-0.254316
-0.231941
-0.212378
-0.195402
-0.180721
-0.168019
-0.15698
-0.147305
-0.138713
-0.130945
-0.123766
-0.116958
-0.110322
-0.10367
-0.0968282
-0.0896297
-0.0819136
-0.0735218
-0.0642971
-0.0540798
-0.0427059
-0.030004
-0.0157931
0.000120569
0.0179451
0.0379051
0.0602423
0.0852138
0.113087
0.144127
0.178578
0.216621
0.258316
0.303507
0.351678
0.401752
0.451794
0.498728
0.53842
0.564993
0.565687
0.528887
-0.48974
-0.525981
-0.520336
-0.489515
-0.449408
-0.406553
-0.364668
-0.32598
-0.291475
-0.261373
-0.235481
-0.213406
-0.194673
-0.178795
-0.165306
-0.15378
-0.143834
-0.135126
-0.127354
-0.120248
-0.113567
-0.107093
-0.100626
-0.0939806
-0.0869816
-0.0794608
-0.0712534
-0.0621951
-0.0521184
-0.0408496
-0.0282052
-0.0139877
0.0020181
0.0200499
0.0403725
0.0632826
0.0891127
0.118233
0.151048
0.187988
0.22948
0.2759
0.327479
0.384145
0.445271
0.509239
0.572926
0.631479
0.676983
0.691089
0.654348
-0.613764
-0.646706
-0.621036
-0.565989
-0.504284
-0.443947
-0.388688
-0.34019
-0.298713
-0.263781
-0.234625
-0.210408
-0.190324
-0.173647
-0.159742
-0.148061
-0.138139
-0.129576
-0.122027
-0.115197
-0.108822
-0.102672
-0.0965379
-0.0902259
-0.0835563
-0.0763565
-0.068458
-0.0596923
-0.049887
-0.0388622
-0.0264255
-0.0123673
0.0035446
0.0215725
0.0420162
0.0652225
0.0915953
0.121607
0.155809
0.194838
0.239413
0.290311
0.348306
0.414029
0.487699
0.56859
0.654243
0.739761
0.815399
0.85573
0.828127
-0.803684
-0.81394
-0.747051
-0.652621
-0.560023
-0.477141
-0.406211
-0.347239
-0.29899
-0.259829
-0.228151
-0.202536
-0.181787
-0.164914
-0.151111
-0.139718
-0.130195
-0.122094
-0.115043
-0.108723
-0.102862
-0.0972211
-0.0915857
-0.0857614
-0.0795668
-0.0728289
-0.0653788
-0.0570481
-0.047661
-0.0370377
-0.0249811
-0.0112749
0.00432401
0.0220944
0.0423618
0.0655122
0.0920091
0.122416
0.15742
0.197867
0.244789
0.299432
0.363256
0.437883
0.524898
0.625349
0.738811
0.862065
0.98513
1.07586
1.08166
-1.11105
-1.04785
-0.901184
-0.745592
-0.610644
-0.500285
-0.412504
-0.343662
-0.289928
-0.24797
-0.215106
-0.189249
-0.168796
-0.152515
-0.139454
-0.128869
-0.120172
-0.112887
-0.106628
-0.101071
-0.0959409
-0.0909995
-0.0860355
-0.0808573
-0.0752872
-0.0691556
-0.0622983
-0.0545527
-0.0457343
-0.0356773
-0.0241835
-0.0110358
0.00401127
0.0212428
0.0409965
0.0636804
0.0897964
0.119972
0.155002
0.19591
0.244019
0.301054
0.369258
0.451499
0.551315
0.672754
0.819685
0.993785
1.18872
1.37227
1.46995
-1.65323
-1.37053
-1.07395
-0.831015
-0.64341
-0.50349
-0.400765
-0.325151
-0.268963
-0.226775
-0.194774
-0.170266
-0.151331
-0.136581
-0.12499
-0.115783
-0.108364
-0.102262
-0.0970958
-0.0925534
-0.0883702
-0.0843179
-0.0801951
-0.0758192
-0.0710208
-0.0656386
-0.0595142
-0.0524862
-0.0444056
-0.0350855
-0.0243417
-0.0119667
0.00227802
0.0186708
0.0375444
0.0593058
0.0844632
0.113665
0.147755
0.187856
0.23549
0.292761
0.36262
0.44925
0.558578
0.698996
0.881768
1.11847
1.41488
1.76813
2.11691
-2.74646
-1.78568
-1.19355
-0.845172
-0.613586
-0.457311
-0.35207
-0.279525
-0.228073
-0.190765
-0.163249
-0.142685
-0.12716
-0.115348
-0.106297
-0.0993024
-0.0938267
-0.0894483
-0.0858281
-0.0826861
-0.0797856
-0.0769217
-0.0739122
-0.0705917
-0.0668061
-0.0624079
-0.0572526
-0.0511944
-0.0440863
-0.0357668
-0.026065
-0.0147902
-0.0017248
0.0133853
0.0308437
0.0510218
0.0743855
0.101533
0.133253
0.170612
0.215095
0.268838
0.335006
0.418442
0.526818
0.672831
0.87714
1.16822
1.58958
2.26981
3.34384
-4.62883
-2.209
-1.11824
-0.688859
-0.464022
-0.330483
-0.249062
-0.196683
-0.160987
-0.135735
-0.117492
-0.104167
-0.0943993
-0.0872562
-0.0820636
-0.0783148
-0.0756152
-0.0736486
-0.072155
-0.0709151
-0.0697395
-0.0684612
-0.0669294
-0.0650051
-0.0625569
-0.0594585
-0.0555851
-0.0508111
-0.0450072
-0.0380367
-0.0297529
-0.0199941
-0.00857829
0.00470436
0.0201009
0.0379093
0.0584977
0.0823321
0.110019
0.142371
0.180513
0.22607
0.281502
0.350762
0.440736
0.56463
0.748414
1.0407
1.5653
2.77256
5.31548
)
;

boundaryField
{
    movingWall
    {
        type            zeroGradient;
    }
    fixedWalls
    {
        type            zeroGradient;
    }
    frontAndBack
    {
        type            empty;
    }
}


// ************************************************************************* //
