/*--------------------------------*- C++ -*----------------------------------*\
| =========                 |                                                 |
| \\      /  F ield         | OpenFOAM: The Open Source CFD Toolbox           |
|  \\    /   O peration     | Version:  2312                                  |
|   \\  /    A nd           | Website:  www.openfoam.com                      |
|    \\/     M anipulation  |                                                 |
\*---------------------------------------------------------------------------*/
FoamFile
{
    version     2.0;
    format      ascii;
    arch        "LSB;label=32;scalar=64";
    class       surfaceScalarField;
    location    "50";
    object      phi;
}
// * * * * * * * * * * * * * * * * * * * * * * * * * * * * * * * * * * * * * //

dimensions      [0 3 -1 0 0 0 0];

oriented        oriented;

internalField   nonuniform List<scalar> 
4900
(
1.19257e-07
-1.1932e-07
2.38702e-07
-1.19445e-07
2.38594e-07
1.07751e-10
7.87705e-08
1.59824e-07
-2.47412e-07
3.26183e-07
-7.2923e-07
4.81818e-07
-1.34821e-06
6.18982e-07
-2.0827e-06
7.34483e-07
-2.91014e-06
8.27445e-07
-3.80828e-06
8.98142e-07
-4.75572e-06
9.47436e-07
-5.7322e-06
9.76479e-07
-6.71874e-06
9.86545e-07
-7.69769e-06
9.78944e-07
-8.65266e-06
9.54968e-07
-9.56852e-06
9.15868e-07
-1.04314e-05
8.62852e-07
-1.12285e-05
7.97087e-07
-1.19482e-05
7.19715e-07
-1.25801e-05
6.31874e-07
-1.31148e-05
5.3472e-07
-1.35442e-05
4.2945e-07
-1.38615e-05
3.17323e-07
-1.40612e-05
1.99683e-07
-1.41392e-05
7.79787e-08
-1.4093e-05
-4.623e-08
-1.39217e-05
-1.7126e-07
-1.36264e-05
-2.95306e-07
-1.321e-05
-4.16452e-07
-1.26773e-05
-5.3268e-07
-1.20354e-05
-6.41897e-07
-1.12934e-05
-7.41963e-07
-1.04627e-05
-8.30724e-07
-9.55663e-06
-9.0606e-07
-8.5907e-06
-9.65929e-07
-7.58229e-06
-1.00842e-06
-6.55049e-06
-1.0318e-06
-5.51592e-06
-1.03457e-06
-4.50039e-06
-1.01554e-06
-3.52654e-06
-9.7384e-07
-2.61751e-06
-9.09037e-07
-1.79633e-06
-8.21182e-07
-1.08536e-06
-7.10966e-07
-5.05406e-07
-5.79956e-07
-7.43057e-08
-4.311e-07
1.95528e-07
-2.69834e-07
3.01335e-07
-1.05806e-07
2.58004e-07
4.3332e-08
1.17182e-07
1.40822e-07
1.17182e-07
1.21002e-07
-2.40322e-07
1.2504e-07
-1.23483e-07
-1.59928e-07
2.85075e-07
-8.11953e-07
8.11849e-07
-1.85106e-06
1.36529e-06
-3.26251e-06
1.89326e-06
-5.01068e-06
2.36715e-06
-7.04862e-06
2.77243e-06
-9.32389e-06
3.10272e-06
-1.17821e-05
3.35638e-06
-1.43693e-05
3.53456e-06
-1.70327e-05
3.63996e-06
-1.97224e-05
3.67621e-06
-2.23908e-05
3.64738e-06
-2.49936e-05
3.55775e-06
-2.74894e-05
3.41166e-06
-2.984e-05
3.21344e-06
-3.20103e-05
2.96737e-06
-3.39683e-05
2.67776e-06
-3.56854e-05
2.34894e-06
-3.7136e-05
1.98536e-06
-3.82982e-05
1.59164e-06
-3.91536e-05
1.17265e-06
-3.96874e-05
7.3356e-07
-3.98893e-05
2.79889e-07
-3.97531e-05
-1.82437e-07
-3.92773e-05
-6.47087e-07
-3.84653e-05
-1.10733e-06
-3.73257e-05
-1.55604e-06
-3.58726e-05
-1.98582e-06
-3.41255e-05
-2.389e-06
-3.21096e-05
-2.7578e-06
-2.98559e-05
-3.08446e-06
-2.74005e-05
-3.36139e-06
-2.47852e-05
-3.5813e-06
-2.20561e-05
-3.73749e-06
-1.92639e-05
-3.82395e-06
-1.64629e-05
-3.83561e-06
-1.37098e-05
-3.7686e-06
-1.10633e-05
-3.62043e-06
-8.58195e-06
-3.39035e-06
-6.32345e-06
-3.07968e-06
-4.34196e-06
-2.69246e-06
-2.68561e-06
-2.2363e-06
-1.39262e-06
-1.72409e-06
-4.85671e-07
-1.17678e-06
3.69798e-08
-6.28457e-07
2.15061e-07
-1.34749e-07
1.4177e-07
2.14113e-07
2.58952e-07
5.25122e-09
-2.45573e-07
-2.76652e-07
1.58421e-07
-1.00929e-06
1.01771e-06
-2.27084e-06
2.0734e-06
-4.08185e-06
3.1763e-06
-6.42242e-06
4.23384e-06
-9.24555e-06
5.19028e-06
-1.24874e-05
6.01427e-06
-1.60746e-05
6.68993e-06
-1.99293e-05
7.21108e-06
-2.39724e-05
7.57768e-06
-2.8126e-05
7.79353e-06
-3.23146e-05
7.86477e-06
-3.64661e-05
7.79892e-06
-4.05126e-05
7.60427e-06
-4.43905e-05
7.28951e-06
-4.80406e-05
6.86354e-06
-5.14086e-05
6.33538e-06
-5.4445e-05
5.71417e-06
-5.71053e-05
5.00927e-06
-5.93503e-05
4.23031e-06
-6.1146e-05
3.38734e-06
-6.24642e-05
2.49092e-06
-6.3283e-05
1.55228e-06
-6.35864e-05
5.8337e-07
-6.33658e-05
-4.03071e-07
-6.26194e-05
-1.39349e-06
-6.13532e-05
-2.37352e-06
-5.95812e-05
-3.3281e-06
-5.73254e-05
-4.24157e-06
-5.46166e-05
-5.09783e-06
-5.14938e-05
-5.88061e-06
-4.80045e-05
-6.57375e-06
-4.42044e-05
-7.16149e-06
-4.01568e-05
-7.62887e-06
-3.59322e-05
-7.96213e-06
-3.1607e-05
-8.14913e-06
-2.72627e-05
-8.17984e-06
-2.29845e-05
-8.04681e-06
-1.88592e-05
-7.74574e-06
-1.49734e-05
-7.27616e-06
-1.14108e-05
-6.64227e-06
-8.24915e-06
-5.85413e-06
-5.55597e-06
-4.92948e-06
-3.38349e-06
-3.89657e-06
-1.76155e-06
-2.79873e-06
-6.88225e-07
-1.70178e-06
-1.18604e-07
-7.0437e-07
4.98355e-08
4.56735e-08
3.08788e-07
-1.52355e-07
-9.32185e-08
-8.03811e-07
8.09877e-07
-2.07337e-06
2.28727e-06
-4.01761e-06
4.01764e-06
-6.64388e-06
5.80257e-06
-9.92116e-06
7.51112e-06
-1.37905e-05
9.05959e-06
-1.81739e-05
1.03977e-05
-2.29817e-05
1.14977e-05
-2.81178e-05
1.23471e-05
-3.34835e-05
1.29434e-05
-3.89806e-05
1.32906e-05
-4.45131e-05
1.33973e-05
-4.99889e-05
1.32747e-05
-5.53203e-05
1.29356e-05
-6.04249e-05
1.23941e-05
-6.52259e-05
1.16646e-05
-6.96527e-05
1.07621e-05
-7.36407e-05
9.70219e-06
-7.7132e-05
8.50059e-06
-8.00755e-05
7.17382e-06
-8.24273e-05
5.73908e-06
-8.41509e-05
4.21451e-06
-8.52179e-05
2.61932e-06
-8.56084e-05
9.73896e-07
-8.53114e-05
-7.00054e-07
-8.43254e-05
-2.37954e-06
-8.26586e-05
-4.04032e-06
-8.03297e-05
-5.65701e-06
-7.73679e-05
-7.20333e-06
-7.38134e-05
-8.6524e-06
-6.97169e-05
-9.9771e-06
-6.514e-05
-1.11506e-05
-6.01547e-05
-1.21468e-05
-5.48424e-05
-1.29412e-05
-4.92935e-05
-1.35111e-05
-4.36057e-05
-1.38369e-05
-3.78829e-05
-1.39026e-05
-3.22331e-05
-1.36966e-05
-2.6766e-05
-1.32128e-05
-2.15904e-05
-1.24518e-05
-1.68109e-05
-1.14218e-05
-1.25237e-05
-1.01413e-05
-8.81231e-06
-8.64085e-06
-5.74148e-06
-6.9674e-06
-3.35035e-06
-5.18985e-06
-1.64442e-06
-3.40771e-06
-5.86739e-07
-1.76205e-06
-8.93118e-08
-4.51754e-07
2.19476e-07
-3.21176e-07
2.27957e-07
-1.3767e-06
1.8654e-06
-3.2272e-06
4.13778e-06
-5.89396e-06
6.68439e-06
-9.36075e-06
9.26936e-06
-1.35792e-05
1.17296e-05
-1.84758e-05
1.39561e-05
-2.39583e-05
1.58803e-05
-2.99227e-05
1.74621e-05
-3.62572e-05
1.86817e-05
-4.28472e-05
1.95334e-05
-4.95779e-05
2.00213e-05
-5.63366e-05
2.0156e-05
-6.30143e-05
1.99524e-05
-6.95071e-05
1.94285e-05
-7.5717e-05
1.8604e-05
-8.15524e-05
1.74999e-05
-8.69286e-05
1.61384e-05
-9.17686e-05
1.45422e-05
-9.6003e-05
1.2735e-05
-9.95706e-05
1.07415e-05
-0.000102419
8.58749e-06
-0.000104505
6.30033e-06
-0.000105794
3.90882e-06
-0.000106264
1.44355e-06
-0.000105901
-1.06302e-06
-0.000104704
-3.5766e-06
-0.000102683
-6.06114e-06
-9.98612e-05
-8.47899e-06
-9.62732e-05
-1.07913e-05
-9.19673e-05
-1.29584e-05
-8.7004e-05
-1.49404e-05
-8.14567e-05
-1.66979e-05
-7.54107e-05
-1.81928e-05
-6.89628e-05
-1.93891e-05
-6.22196e-05
-2.02543e-05
-5.52967e-05
-2.07598e-05
-4.83164e-05
-2.08829e-05
-4.14056e-05
-2.06074e-05
-3.46931e-05
-1.99253e-05
-2.83062e-05
-1.88387e-05
-2.23671e-05
-1.7361e-05
-1.69883e-05
-1.552e-05
-1.22683e-05
-1.33609e-05
-8.28502e-06
-1.09506e-05
-5.09063e-06
-8.38424e-06
-2.7047e-06
-5.79364e-06
-1.10869e-06
-3.35806e-06
-2.4197e-07
-1.31847e-06
-2.24938e-08
-4.87414e-07
7.1537e-07
-1.95419e-06
3.33217e-06
-4.40027e-06
6.58387e-06
-7.80488e-06
1.0089e-05
-1.21217e-05
1.35862e-05
-1.72799e-05
1.68878e-05
-2.31882e-05
1.98644e-05
-2.97389e-05
2.2431e-05
-3.68134e-05
2.45366e-05
-4.42861e-05
2.61544e-05
-5.20281e-05
2.72755e-05
-5.99106e-05
2.79038e-05
-6.78066e-05
2.8052e-05
-7.55933e-05
2.77391e-05
-8.31531e-05
2.69883e-05
-9.03749e-05
2.58257e-05
-9.71546e-05
2.42797e-05
-0.000103396
2.23799e-05
-0.000109012
2.01576e-05
-0.000113922
1.76454e-05
-0.000118058
1.48772e-05
-0.000121359
1.18888e-05
-0.000123777
8.71787e-06
-0.000125272
5.40432e-06
-0.000125819
1.99036e-06
-0.000125403
-1.47932e-06
-0.000124022
-4.95757e-06
-0.000121688
-8.39493e-06
-0.000118427
-1.17399e-05
-0.000114279
-1.49393e-05
-0.000109298
-1.79391e-05
-0.000103553
-2.06851e-05
-9.71276e-05
-2.31236e-05
-9.01174e-05
-2.5203e-05
-8.26318e-05
-2.68747e-05
-7.47915e-05
-2.80946e-05
-6.67268e-05
-2.88245e-05
-5.85758e-05
-2.90339e-05
-5.04816e-05
-2.87016e-05
-4.25894e-05
-2.78176e-05
-3.5043e-05
-2.63851e-05
-2.79805e-05
-2.44234e-05
-2.15305e-05
-2.197e-05
-1.58065e-05
-1.9085e-05
-1.09021e-05
-1.58551e-05
-6.88584e-06
-1.24005e-05
-3.79689e-06
-8.8826e-06
-1.64172e-06
-5.51323e-06
-3.9401e-07
-2.56618e-06
-4.16504e-07
-6.4596e-07
1.36133e-06
-2.51678e-06
5.20299e-06
-5.55526e-06
9.62234e-06
-9.69666e-06
1.42304e-05
-1.4861e-05
1.87505e-05
-2.09516e-05
2.29785e-05
-2.78564e-05
2.67691e-05
-3.54506e-05
3.00252e-05
-4.36006e-05
3.26865e-05
-5.21668e-05
3.47206e-05
-6.10073e-05
3.61161e-05
-6.99807e-05
3.68771e-05
-7.89476e-05
3.7019e-05
-8.77734e-05
3.65649e-05
-9.6329e-05
3.55438e-05
-0.000104492
3.39888e-05
-0.000112148
3.19359e-05
-0.000119192
2.94233e-05
-0.000125525
2.64913e-05
-0.000131062
2.31823e-05
-0.000135725
1.95404e-05
-0.000139449
1.56124e-05
-0.000142179
1.14475e-05
-0.000143872
7.09756e-06
-0.000144499
2.61769e-06
-0.000144045
-1.93398e-06
-0.000142506
-6.49618e-06
-0.000139896
-1.10047e-05
-0.000136243
-1.53929e-05
-0.000131591
-1.9592e-05
-0.000125998
-2.3532e-05
-0.00011954
-2.7143e-05
-0.000112308
-3.03557e-05
-0.000104407
-3.31037e-05
-9.59575e-05
-3.53243e-05
-8.70913e-05
-3.69607e-05
-7.79517e-05
-3.79641e-05
-6.86904e-05
-3.82952e-05
-5.94649e-05
-3.7927e-05
-5.04356e-05
-3.68469e-05
-4.17617e-05
-3.50591e-05
-3.35972e-05
-3.25879e-05
-2.60866e-05
-2.94806e-05
-1.93603e-05
-2.58113e-05
-1.35297e-05
-2.16857e-05
-8.6833e-06
-1.72469e-05
-4.88354e-06
-1.26824e-05
-2.16571e-06
-8.23105e-06
-5.40059e-07
-4.19184e-06
-9.56563e-07
-7.95578e-07
2.15691e-06
-3.05693e-06
7.46434e-06
-6.67516e-06
1.32406e-05
-1.15425e-05
1.90977e-05
-1.7544e-05
2.4752e-05
-2.45549e-05
2.99894e-05
-3.24403e-05
3.46546e-05
-4.10568e-05
3.86418e-05
-5.02547e-05
4.18843e-05
-5.98804e-05
4.43463e-05
-6.97794e-05
4.6015e-05
-7.97981e-05
4.68959e-05
-8.97865e-05
4.70073e-05
-9.95992e-05
4.63776e-05
-0.000109097
4.50419e-05
-0.000118149
4.30406e-05
-0.000126631
4.04182e-05
-0.00013443
3.72218e-05
-0.00014144
3.35017e-05
-0.000147569
2.93105e-05
-0.000152732
2.47036e-05
-0.000156859
1.97392e-05
-0.00015989
1.44788e-05
-0.00016178
8.98737e-06
-0.000162496
3.33372e-06
-0.00016202
-2.40962e-06
-0.00016035
-8.16628e-06
-0.000157498
-1.38563e-05
-0.000153495
-1.93966e-05
-0.000148385
-2.47018e-05
-0.000142232
-2.96848e-05
-0.000135116
-3.42586e-05
-0.000127135
-3.83373e-05
-0.000118401
-4.18379e-05
-0.000109042
-4.46828e-05
-9.92016e-05
-4.68011e-05
-8.90337e-05
-4.8132e-05
-7.87025e-05
-4.86264e-05
-6.8379e-05
-4.82505e-05
-5.8238e-05
-4.69879e-05
-4.84539e-05
-4.48432e-05
-3.91972e-05
-4.18446e-05
-3.06296e-05
-3.80482e-05
-2.28998e-05
-3.3541e-05
-1.61396e-05
-2.84459e-05
-1.04599e-05
-2.29265e-05
-5.94934e-06
-1.7193e-05
-2.6735e-06
-1.15069e-05
-6.78612e-07
-6.18673e-06
-1.63518e-06
-9.36723e-07
3.09363e-06
-3.57322e-06
1.01008e-05
-7.75443e-06
1.74218e-05
-1.33317e-05
2.46749e-05
-2.01552e-05
3.15756e-05
-2.80712e-05
3.79053e-05
-3.69207e-05
4.35041e-05
-4.65403e-05
4.82613e-05
-5.67633e-05
5.21073e-05
-6.74216e-05
5.50047e-05
-7.83481e-05
5.69415e-05
-8.9378e-05
5.79257e-05
-0.000100351
5.798e-05
-0.000111111
5.71384e-05
-0.000121513
5.54431e-05
-0.000131415
5.29425e-05
-0.000140686
4.96899e-05
-0.000149207
4.57422e-05
-0.000156865
4.116e-05
-0.000163561
3.60068e-05
-0.000169207
3.03496e-05
-0.000173727
2.42588e-05
-0.000177057
1.7809e-05
-0.000179148
1.10787e-05
-0.000179966
4.15103e-06
-0.000179489
-2.88633e-06
-0.000177714
-9.94111e-06
-0.000174654
-1.69168e-05
-0.000170337
-2.37131e-05
-0.000164812
-3.02268e-05
-0.000158144
-3.63529e-05
-0.000150417
-4.1986e-05
-0.000141732
-4.70224e-05
-0.000132208
-5.13615e-05
-0.000121982
-5.49089e-05
-0.000111204
-5.75787e-05
-0.00010004
-5.92964e-05
-8.86644e-05
-6.00019e-05
-7.72619e-05
-5.9653e-05
-6.60215e-05
-5.82283e-05
-5.51336e-05
-5.5731e-05
-4.47857e-05
-5.21925e-05
-3.51583e-05
-4.76756e-05
-2.64205e-05
-4.22789e-05
-1.87262e-05
-3.61402e-05
-1.22115e-05
-2.94413e-05
-6.99223e-06
-2.24122e-05
-3.16511e-06
-1.5334e-05
-8.10434e-07
-8.54141e-06
-2.44561e-06
-1.07049e-06
4.16412e-06
-4.06719e-06
1.30975e-05
-8.79371e-06
2.21483e-05
-1.5063e-05
3.09442e-05
-2.26913e-05
3.92039e-05
-3.14957e-05
4.67097e-05
-4.12924e-05
5.33007e-05
-5.18969e-05
5.88659e-05
-6.31252e-05
6.33355e-05
-7.47941e-05
6.66736e-05
-8.67237e-05
6.88711e-05
-9.87379e-05
6.994e-05
-0.000110667
6.99088e-05
-0.000122346
6.88181e-05
-0.000133621
6.67182e-05
-0.000144345
6.36662e-05
-0.00015438
5.97248e-05
-0.000163599
5.49613e-05
-0.000171886
4.9447e-05
-0.000179136
4.32567e-05
-0.000185256
3.64696e-05
-0.000190166
2.91688e-05
-0.000193799
2.1442e-05
-0.000196102
1.33818e-05
-0.000197037
5.08618e-06
-0.000196582
-3.34154e-06
-0.00019473
-1.17927e-05
-0.000191494
-2.01536e-05
-0.000186901
-2.83061e-05
-0.000180999
-3.61283e-05
-0.000173856
-4.34963e-05
-0.000165556
-5.02854e-05
-0.000156206
-5.63726e-05
-0.000145929
-6.16386e-05
-0.000134867
-6.59709e-05
-0.000123179
-6.92667e-05
-0.000111039
-7.14363e-05
-9.86343e-05
-7.24068e-05
-8.61615e-05
-7.21258e-05
-7.38246e-05
-7.05652e-05
-6.18305e-05
-6.77251e-05
-5.03851e-05
-6.36378e-05
-3.96893e-05
-5.83714e-05
-2.99344e-05
-5.20337e-05
-2.12989e-05
-4.47757e-05
-1.39451e-05
-3.67951e-05
-8.01785e-06
-2.83395e-05
-3.6444e-06
-1.97075e-05
-9.37242e-07
-1.12486e-05
-3.38285e-06
-1.19812e-06
5.36224e-06
-4.54164e-06
1.6441e-05
-9.79667e-06
2.74033e-05
-1.67402e-05
3.78877e-05
-2.51558e-05
4.76195e-05
-3.48314e-05
5.63853e-05
-4.55583e-05
6.40276e-05
-5.71307e-05
7.04383e-05
-6.93463e-05
7.55511e-05
-8.20067e-05
7.93341e-05
-9.4919e-05
8.17833e-05
-0.000107896
8.29172e-05
-0.000120759
8.27712e-05
-0.000133335
8.13941e-05
-0.000145461
7.88451e-05
-0.000156986
7.51908e-05
-0.000167766
7.05043e-05
-0.000177668
6.48634e-05
-0.000186571
5.83507e-05
-0.000194368
5.1053e-05
-0.00020096
4.30615e-05
-0.000206263
3.44722e-05
-0.000210207
2.53865e-05
-0.000212737
1.59112e-05
-0.00021381
6.15933e-06
-0.000213402
-3.75001e-06
-0.000211503
-1.36914e-05
-0.000208123
-2.35335e-05
-0.00020329
-3.31396e-05
-0.000197049
-4.23688e-05
-0.000189468
-5.10773e-05
-0.000180633
-5.91202e-05
-0.000170652
-6.63538e-05
-0.000159652
-7.26389e-05
-0.00014778
-7.7843e-05
-0.000135202
-8.18448e-05
-0.0001221
-8.45375e-05
-0.000108674
-8.58334e-05
-9.51319e-05
-8.56676e-05
-8.1694e-05
-8.40031e-05
-6.85845e-05
-8.08347e-05
-5.60291e-05
-7.61932e-05
-4.42507e-05
-7.01499e-05
-3.34648e-05
-6.28196e-05
-2.38761e-05
-5.43644e-05
-1.56751e-05
-4.49961e-05
-9.03616e-06
-3.49784e-05
-4.11718e-06
-2.46264e-05
-1.06113e-06
-1.43046e-05
-4.44398e-06
-1.32085e-06
6.6831e-06
-4.99978e-06
2.012e-05
-1.07683e-05
3.31719e-05
-1.83695e-05
4.54889e-05
-2.75554e-05
5.68054e-05
-3.80856e-05
6.69155e-05
-4.97263e-05
7.56683e-05
-6.225e-05
8.29621e-05
-7.54361e-05
8.87372e-05
-8.90707e-05
9.29687e-05
-0.000102948
9.56604e-05
-0.000116869
9.68388e-05
-0.000130647
9.65485e-05
-0.000144101
9.48479e-05
-0.000157062
9.18061e-05
-0.000169371
8.75003e-05
-0.000180881
8.20144e-05
-0.000191455
7.54377e-05
-0.000200969
6.78643e-05
-0.000209309
5.93929e-05
-0.000216375
5.01273e-05
-0.000222079
4.01766e-05
-0.000226348
2.96555e-05
-0.000229122
1.86852e-05
-0.000230357
7.39379e-06
-0.000230023
-4.08377e-06
-0.000228109
-1.56052e-05
-0.000224621
-2.70213e-05
-0.000219584
-3.81767e-05
-0.000213042
-4.89105e-05
-0.000205061
-5.90585e-05
-0.000195727
-6.84545e-05
-0.000185147
-7.69333e-05
-0.000173453
-8.43337e-05
-0.000160794
-9.0502e-05
-0.000147342
-9.52961e-05
-0.00013329
-9.859e-05
-0.000118844
-0.000100279
-0.00010423
-0.000100282
-8.96816e-05
-9.85516e-05
-7.54421e-05
-9.50742e-05
-6.17587e-05
-8.98767e-05
-4.88778e-05
-8.30307e-05
-3.70413e-05
-7.46561e-05
-2.64818e-05
-6.49239e-05
-1.74194e-05
-5.40584e-05
-1.00594e-05
-4.23385e-05
-4.59018e-06
-3.00956e-05
-1.18431e-06
-1.77105e-05
-5.6283e-06
-1.43977e-06
8.12286e-06
-5.44473e-06
2.41249e-05
-1.17138e-05
3.9441e-05
-1.9958e-05
5.37331e-05
-2.98986e-05
6.67461e-05
-4.12675e-05
7.82844e-05
-5.38059e-05
8.82068e-05
-6.72649e-05
9.64211e-05
-8.14052e-05
0.000102877
-9.59973e-05
0.000107561
-0.000110822
0.000110485
-0.000125671
0.000111688
-0.000140346
0.000111224
-0.000154661
0.000109163
-0.000168441
0.000105586
-0.000181521
0.000100581
-0.000193751
9.42439e-05
-0.000204989
8.6676e-05
-0.000215108
7.79832e-05
-0.000223992
6.82766e-05
-0.000231537
5.76722e-05
-0.000237652
4.62922e-05
-0.000242261
3.42646e-05
-0.000245301
2.17248e-05
-0.000246723
8.81563e-06
-0.000246494
-4.31218e-06
-0.0002446
-1.74996e-05
-0.000241042
-3.05796e-05
-0.00023584
-4.33778e-05
-0.000229038
-5.57133e-05
-0.000220696
-6.74005e-05
-0.000210899
-7.82512e-05
-0.000199755
-8.80773e-05
-0.000187394
-9.66942e-05
-0.000173972
-0.000103925
-0.000159663
-0.000109604
-0.000144668
-0.000113585
-0.000129206
-0.000115741
-0.000113513
-0.000115975
-9.78407e-05
-0.000114224
-8.24526e-05
-0.000110462
-6.76183e-05
-0.000104711
-5.36098e-05
-9.70392e-05
-4.06969e-05
-8.7569e-05
-2.91425e-05
-7.64783e-05
-1.91982e-05
-6.40028e-05
-1.11008e-05
-5.04358e-05
-5.07047e-06
-3.6126e-05
-1.309e-06
-2.14719e-05
-6.9373e-06
-1.5558e-06
9.67867e-06
-5.87933e-06
2.84485e-05
-1.26383e-05
4.62e-05
-2.15125e-05
6.26072e-05
-3.21938e-05
7.74274e-05
-4.43864e-05
9.0477e-05
-5.78072e-05
0.000101628
-7.21855e-05
0.000110799
-8.72635e-05
0.000117955
-0.000102796
0.000123093
-0.000118551
0.00012624
-0.00013431
0.000127446
-0.000149865
0.000126779
-0.000165025
0.000124322
-0.000179607
0.000120168
-0.000193445
0.000114419
-0.000206383
0.000107182
-0.000218278
9.85707e-05
-0.000228999
8.8704e-05
-0.000238427
7.7705e-05
-0.000246457
6.57023e-05
-0.000252996
5.28306e-05
-0.000257962
3.92311e-05
-0.00026129
2.50529e-05
-0.000262928
1.04531e-05
-0.000262838
-4.40214e-06
-0.000261
-1.93373e-05
-0.000257412
-3.41679e-05
-0.000252089
-4.87004e-05
-0.000245069
-6.27337e-05
-0.000236409
-7.60605e-05
-0.00022619
-8.84696e-05
-0.000214519
-9.97486e-05
-0.000201525
-0.000109688
-0.000187364
-0.000118086
-0.000172217
-0.000124751
-0.00015629
-0.000129512
-0.000139812
-0.000132219
-0.000123034
-0.000132754
-0.000106223
-0.000131034
-8.96655e-05
-0.00012702
-7.36535e-05
-0.000120723
-5.84872e-05
-0.000112206
-4.44666e-05
-0.00010159
-3.18865e-05
-8.90584e-05
-2.10321e-05
-7.48571e-05
-1.21741e-05
-5.92938e-05
-5.56515e-06
-4.2735e-05
-1.43734e-06
-2.55998e-05
-8.37463e-06
-1.66975e-06
1.13484e-05
-6.30608e-06
3.30848e-05
-1.35462e-05
5.34401e-05
-2.30395e-05
7.21005e-05
-3.44487e-05
8.88366e-05
-4.74511e-05
0.000103479
-6.1739e-05
0.000115915
-7.70204e-05
0.000126081
-9.30189e-05
0.000133954
-0.000109474
0.000139548
-0.000126141
0.000142907
-0.000142789
0.000144095
-0.000159206
0.000143196
-0.000175191
0.000140307
-0.000190559
0.000135536
-0.000205139
0.000128999
-0.000218773
0.000120815
-0.000231314
0.000111113
-0.000242632
0.000100022
-0.000252605
8.76782e-05
-0.000261126
7.42231e-05
-0.000268099
5.98032e-05
-0.00027344
4.45726e-05
-0.00027708
2.86931e-05
-0.000278963
1.23359e-05
-0.000279047
-4.31836e-06
-0.000277306
-2.10783e-05
-0.000273732
-3.77421e-05
-0.000268335
-5.40977e-05
-0.000261145
-6.99236e-05
-0.000252215
-8.49904e-05
-0.000241621
-9.90633e-05
-0.000229465
-0.000111905
-0.000215875
-0.000123278
-0.000201007
-0.000132954
-0.000185044
-0.000140714
-0.000168199
-0.000146357
-0.00015071
-0.000149708
-0.000132841
-0.000150622
-0.000114879
-0.000148996
-9.71282e-05
-0.000144771
-7.99092e-05
-0.000137942
-6.35506e-05
-0.000128564
-4.8385e-05
-0.000116755
-3.47418e-05
-0.000102702
-2.29422e-05
-8.66567e-05
-1.32928e-05
-6.89432e-05
-6.0812e-06
-4.99466e-05
-1.57139e-06
-3.01096e-05
-9.94602e-06
-1.78227e-06
1.31307e-05
-6.7271e-06
3.80296e-05
-1.44415e-05
6.11545e-05
-2.45446e-05
8.22037e-05
-3.66704e-05
0.000100962
-5.04692e-05
0.000117278
-6.56091e-05
0.000131055
-8.17766e-05
0.000142248
-9.86769e-05
0.000150854
-0.000116034
0.000156906
-0.000133591
0.000160464
-0.000151107
0.000161612
-0.000168362
0.000160451
-0.00018515
0.000157096
-0.000201283
0.000151669
-0.000216585
0.000144301
-0.000230897
0.000135127
-0.000244073
0.000124289
-0.000255979
0.000111928
-0.000266494
9.81932e-05
-0.000275509
8.32376e-05
-0.000282925
6.72198e-05
-0.000288658
5.03055e-05
-0.000292634
3.26691e-05
-0.000294793
1.44944e-05
-0.000295087
-4.02389e-06
-0.000293486
-2.26796e-05
-0.000289974
-4.12545e-05
-0.000284553
-5.95182e-05
-0.000277248
-7.72291e-05
-0.000268102
-9.41358e-05
-0.000257186
-0.000109979
-0.000244596
-0.000124495
-0.000230456
-0.000137419
-0.000214919
-0.000148491
-0.000198171
-0.000157462
-0.000180428
-0.0001641
-0.000161938
-0.000168198
-0.000142977
-0.000169583
-0.00012385
-0.000168123
-0.000104885
-0.000163736
-8.64274e-05
-0.000156399
-6.88388e-05
-0.000146153
-5.2486e-05
-0.000133108
-3.7736e-05
-0.000117452
-2.49488e-05
-9.94439e-05
-1.44703e-05
-7.94218e-05
-6.6254e-06
-5.77915e-05
-1.71315e-06
-3.50218e-05
-1.16592e-05
-1.8939e-06
1.50246e-05
-7.1442e-06
4.32799e-05
-1.53274e-05
6.93377e-05
-2.60327e-05
9.29089e-05
-3.88648e-05
0.000113794
-5.34471e-05
0.000131861
-6.94234e-05
0.000147032
-8.64586e-05
0.000159284
-0.00010424
0.000168635
-0.000122476
0.000175141
-0.000140897
0.000178885
-0.000159254
0.000179969
-0.000177319
0.000178516
-0.000194883
0.000174659
-0.000211752
0.000168538
-0.000227751
0.0001603
-0.000242719
0.000150096
-0.000256511
0.00013808
-0.000268992
0.000124409
-0.00028004
0.000109242
-0.000289547
9.27446e-05
-0.000297414
7.50863e-05
-0.000303552
5.64439e-05
-0.000307886
3.70029e-05
-0.00031035
1.69589e-05
-0.000310894
-3.48077e-06
-0.000309477
-2.40961e-05
-0.000306078
-4.46534e-05
-0.000300691
-6.49051e-05
-0.00029333
-8.459e-05
-0.000284032
-0.000103434
-0.000272856
-0.000121155
-0.000259891
-0.000137459
-0.000245255
-0.000152054
-0.000229099
-0.000164648
-0.000211605
-0.000174955
-0.000192994
-0.000182711
-0.00017352
-0.000187672
-0.000153473
-0.000189631
-0.000133173
-0.000188423
-0.000112973
-0.000183937
-9.32466e-05
-0.000176125
-7.4388e-05
-0.000165011
-5.68018e-05
-0.000150694
-4.08956e-05
-0.000133358
-2.70719e-05
-0.000113268
-1.57193e-05
-9.07744e-05
-7.20435e-06
-6.63064e-05
-1.86454e-06
-4.03616e-05
-1.35237e-05
-2.00511e-06
1.70297e-05
-7.55896e-06
4.88338e-05
-1.62071e-05
7.79859e-05
-2.7508e-05
0.00010421
-4.10369e-05
0.000127323
-5.639e-05
0.000147214
-7.31862e-05
0.000163828
-9.1069e-05
0.000177166
-0.000109707
0.000187273
-0.000128794
0.000194228
-0.000148049
0.000198139
-0.000167214
0.000199134
-0.000186055
0.000197357
-0.000204358
0.000192962
-0.000221928
0.000186109
-0.000238591
0.000176962
-0.000254185
0.00016569
-0.000268565
0.00015246
-0.000281599
0.000137443
-0.000293166
0.000120809
-0.000303158
0.000102736
-0.000311475
8.34034e-05
-0.000318029
6.29973e-05
-0.000322739
4.17135e-05
-0.000325538
1.9758e-05
-0.000326368
-2.65092e-06
-0.000325184
-2.52808e-05
-0.000321953
-4.78839e-05
-0.000316662
-7.01964e-05
-0.000309313
-9.19386e-05
-0.000299932
-0.000112815
-0.000288569
-0.000132518
-0.000275301
-0.000150727
-0.000260238
-0.000167118
-0.000243522
-0.000181363
-0.000225336
-0.000193142
-0.000205898
-0.000202149
-0.000185468
-0.000208101
-0.000164348
-0.000210751
-0.000142875
-0.000209895
-0.000121424
-0.000205388
-0.0001004
-0.00019715
-8.02311e-05
-0.00018518
-6.13623e-05
-0.000169563
-4.42457e-05
-0.000150474
-2.93304e-05
-0.000128183
-1.70524e-05
-0.000103052
-7.82443e-06
-7.55344e-05
-2.02743e-06
-4.61586e-05
-1.55511e-05
-2.11632e-06
1.9146e-05
-7.97285e-06
5.46903e-05
-1.70833e-05
8.70963e-05
-2.89744e-05
0.000116101
-4.31914e-05
0.00014154
-5.93023e-05
0.000163325
-7.69007e-05
0.000181426
-9.56083e-05
0.000195874
-0.000115075
0.00020674
-0.000134981
0.000214134
-0.000155032
0.000218191
-0.000174964
0.000219067
-0.000194537
0.00021693
-0.000213535
0.000211959
-0.000231762
0.000204336
-0.000249044
0.000194244
-0.000265222
0.000181868
-0.000280154
0.000167392
-0.000293709
0.000150998
-0.000305771
0.000132871
-0.000316232
0.000113197
-0.000324993
9.21644e-05
-0.000331965
6.99693e-05
-0.000337067
4.68154e-05
-0.000340226
2.29173e-05
-0.00034138
-1.49732e-06
-0.000340475
-2.61856e-05
-0.000337471
-5.08875e-05
-0.000332343
-7.53247e-05
-0.000325082
-9.92e-05
-0.000315699
-0.000122198
-0.000304232
-0.000143985
-0.000290745
-0.000164214
-0.000275336
-0.000182527
-0.000258138
-0.000198561
-0.000239326
-0.000211954
-0.000219118
-0.000222358
-0.000197775
-0.000229444
-0.000175608
-0.000232918
-0.000152972
-0.000232532
-0.000130262
-0.000228097
-0.000107915
-0.000219497
-8.63963e-05
-0.000206699
-6.61945e-05
-0.000189765
-4.78097e-05
-0.000168859
-3.17425e-05
-0.00014425
-1.84816e-05
-0.000116313
-8.49188e-06
-8.55241e-05
-2.20366e-06
-5.24468e-05
-1.77548e-05
-2.22797e-06
2.1374e-05
-8.38739e-06
6.08497e-05
-1.79588e-05
9.66678e-05
-3.04361e-05
0.000128578
-4.53329e-05
0.000156437
-6.21881e-05
0.00018018
-8.05694e-05
0.000199808
-0.000100076
0.00021538
-0.000120339
0.000227004
-0.000141024
0.000234819
-0.000161827
0.000238994
-0.000182476
0.000239716
-0.000202728
0.000237181
-0.000222363
0.000231595
-0.00024119
0.000223162
-0.000259034
0.000212089
-0.000275743
0.000198576
-0.000291176
0.000182825
-0.00030521
0.000165032
-0.00031773
0.000145391
-0.000328632
0.000124099
-0.00033782
0.000101353
-0.000345206
7.73551e-05
-0.000350707
5.23164e-05
-0.000354248
2.6458e-05
-0.00035576
1.46111e-08
-0.000355183
-2.67626e-05
-0.000352467
-5.36034e-05
-0.000347574
-8.02173e-05
-0.000340483
-0.000106291
-0.00033119
-0.000131491
-0.000319716
-0.000155459
-0.000306109
-0.000177821
-0.000290453
-0.000198184
-0.000272867
-0.000216146
-0.000253516
-0.000231305
-0.000232611
-0.000243263
-0.000210414
-0.00025164
-0.000187243
-0.00025609
-0.000163464
-0.000256311
-0.000139498
-0.000252063
-0.000115811
-0.000243184
-9.29072e-05
-0.000229602
-7.13224e-05
-0.00021135
-5.16092e-05
-0.000188572
-3.43253e-05
-0.000161534
-2.00185e-05
-0.00013062
-9.21284e-06
-9.63297e-05
-2.39506e-06
-5.92646e-05
-2.01499e-05
-2.34053e-06
2.37145e-05
-8.80426e-06
6.73134e-05
-1.88369e-05
0.0001067
-3.18975e-05
0.000141639
-4.74666e-05
0.000172006
-6.50521e-05
0.000197765
-8.41946e-05
0.00021895
-0.00010447
0.000235656
-0.000125491
0.000248025
-0.000146909
0.000256236
-0.00016841
0.000260495
-0.000189715
0.000261021
-0.000210578
0.000258044
-0.000230781
0.000251799
-0.000250135
0.000242516
-0.000268471
0.000230424
-0.00028564
0.000215746
-0.00030151
0.000198695
-0.000315963
0.000179485
-0.000328891
0.000158319
-0.000340194
0.000135403
-0.000349781
0.00011094
-0.000357566
8.51393e-05
-0.000363465
5.82156e-05
-0.000367401
3.03944e-05
-0.000369302
1.91517e-06
-0.000369099
-2.69653e-05
-0.000366733
-5.59697e-05
-0.000362153
-8.47974e-05
-0.000355322
-0.000113123
-0.000346219
-0.000140593
-0.000334848
-0.00016683
-0.000321238
-0.000191431
-0.000305451
-0.00021397
-0.000287592
-0.000234006
-0.000267809
-0.000251088
-0.000246304
-0.000264768
-0.000223335
-0.000274609
-0.00019922
-0.000280205
-0.000174339
-0.000281191
-0.000149133
-0.000277269
-0.000124098
-0.000268219
-9.9781e-05
-0.00025392
-7.6766e-05
-0.000234365
-5.56636e-05
-0.000209675
-3.7095e-05
-0.000180103
-2.16745e-05
-0.000146041
-9.99335e-06
-0.000108011
-2.60346e-06
-6.66545e-05
-2.27533e-05
-2.45461e-06
2.61691e-05
-9.22558e-06
7.40844e-05
-1.97216e-05
0.000117196
-3.33643e-05
0.000155282
-4.95987e-05
0.000188241
-6.79e-05
0.000216066
-8.77798e-05
0.00023883
-0.00010879
0.000256666
-0.000130524
0.000269759
-0.000152619
0.000278331
-0.000174751
0.000282627
-0.000196638
0.000282907
-0.000218031
0.000279438
-0.000238717
0.000272485
-0.00025851
0.000262309
-0.000277247
0.000249162
-0.000294789
0.000233288
-0.000311013
0.000214919
-0.000325808
0.00019428
-0.000339076
0.000171587
-0.000350724
0.000147051
-0.000360667
0.000120883
-0.000368821
9.32936e-05
-0.000375107
6.45011e-05
-0.000379445
3.47324e-05
-0.000381758
4.22863e-06
-0.000381973
-2.67507e-05
-0.000380018
-5.79243e-05
-0.000375831
-8.89847e-05
-0.000369357
-0.000119596
-0.000360558
-0.000149392
-0.000349415
-0.000177974
-0.000335934
-0.000204912
-0.000320155
-0.000229749
-0.00030216
-0.000252001
-0.000282078
-0.00027117
-0.000260094
-0.000286751
-0.000236458
-0.000298246
-0.000211485
-0.000305177
-0.000185564
-0.000307113
-0.000159152
-0.000303681
-0.000132778
-0.000294593
-0.000107028
-0.00027967
-8.2541e-05
-0.000258852
-5.99901e-05
-0.000232225
-4.00667e-05
-0.000200026
-2.34605e-05
-0.000162647
-1.08395e-05
-0.000120632
-2.83075e-06
-7.46633e-05
-2.55841e-05
-2.57101e-06
2.87402e-05
-9.65412e-06
8.11675e-05
-2.0618e-05
0.00012816
-3.48439e-05
0.000169507
-5.17379e-05
0.000205135
-7.07397e-05
0.000235068
-9.13301e-05
0.00025942
-0.000113035
0.000278371
-0.000135429
0.000292153
-0.000158134
0.000301036
-0.000180819
0.000305312
-0.000203198
0.000305286
-0.000225024
0.000301264
-0.000246088
0.000293548
-0.00026621
0.000282431
-0.000285239
0.000268191
-0.000303046
0.000251095
-0.000319519
0.000231392
-0.00033456
0.000209321
-0.000348081
0.000185107
-0.000359998
0.000158969
-0.000370236
0.00013112
-0.000378716
0.000101774
-0.000385362
7.11471e-05
-0.000390096
3.94662e-05
-0.000392838
6.97072e-06
-0.000393508
-2.60809e-05
-0.000392025
-5.94068e-05
-0.000388313
-9.26969e-05
-0.0003823
-0.000125609
-0.000373927
-0.000157765
-0.00036315
-0.000188751
-0.00034995
-0.000218112
-0.000334339
-0.000245359
-0.000316372
-0.000269968
-0.000296151
-0.000291391
-0.000273841
-0.000309061
-0.000249674
-0.000322413
-0.000223958
-0.000330893
-0.000197084
-0.000333987
-0.000169526
-0.000331239
-0.000141838
-0.000322282
-0.000114651
-0.000306857
-8.86584e-05
-0.000284844
-6.46031e-05
-0.000256281
-4.32545e-05
-0.000221375
-2.53873e-05
-0.000180514
-1.17574e-05
-0.000134262
-3.07887e-06
-8.33418e-05
-2.8663e-05
-2.6908e-06
3.1431e-05
-1.00936e-05
8.85703e-05
-2.15333e-05
0.0001396
-3.63464e-05
0.000184321
-5.38959e-05
0.000222684
-7.35827e-05
0.000254755
-9.48537e-05
0.000280691
-0.000117208
0.000300725
-0.000140199
0.000315144
-0.000163436
0.000324273
-0.00018658
0.000328457
-0.000209344
0.00032805
-0.000231484
0.000323404
-0.000252799