/*--------------------------------*- C++ -*----------------------------------*\
| =========                 |                                                 |
| \\      /  F ield         | OpenFOAM: The Open Source CFD Toolbox           |
|  \\    /   O peration     | Version:  2312                                  |
|   \\  /    A nd           | Website:  www.openfoam.com                      |
|    \\/     M anipulation  |                                                 |
\*---------------------------------------------------------------------------*/
FoamFile
{
    version     2.0;
    format      ascii;
    arch        "LSB;label=32;scalar=64";
    class       surfaceScalarField;
    location    "50";
    object      phi;
}
// * * * * * * * * * * * * * * * * * * * * * * * * * * * * * * * * * * * * * //

dimensions      [0 3 -1 0 0 0 0];

oriented        oriented;

internalField   nonuniform List<scalar> 
5100
(
1.11058e-07
-1.11141e-07
2.26264e-07
-1.15206e-07
2.34087e-07
-7.82285e-09
9.45789e-08
1.39508e-07
-1.99063e-07
2.93642e-07
-6.38003e-07
4.38939e-07
-1.20596e-06
5.67959e-07
-1.8835e-06
6.77541e-07
-2.65022e-06
7.6672e-07
-3.48585e-06
8.35631e-07
-4.37083e-06
8.84978e-07
-5.28658e-06
9.15747e-07
-6.21564e-06
9.2906e-07
-7.14171e-06
9.26074e-07
-8.04966e-06
9.07946e-07
-8.92546e-06
8.75799e-07
-9.75617e-06
8.30715e-07
-1.05299e-05
7.73742e-07
-1.12358e-05
7.05902e-07
-1.1864e-05
6.28203e-07
-1.24057e-05
5.41664e-07
-1.2853e-05
4.4733e-07
-1.31993e-05
3.46295e-07
-1.3439e-05
2.39721e-07
-1.35679e-05
1.2885e-07
-1.35829e-05
1.50206e-08
-1.34826e-05
-1.00325e-07
-1.32669e-05
-2.15641e-07
-1.29377e-05
-3.29274e-07
-1.24982e-05
-4.39479e-07
-1.19537e-05
-5.44433e-07
-1.13115e-05
-6.42255e-07
-1.05805e-05
-7.31034e-07
-9.77159e-06
-8.08866e-07
-8.8977e-06
-8.73888e-07
-7.97338e-06
-9.24321e-07
-7.01487e-06
-9.58512e-07
-6.03989e-06
-9.74982e-07
-5.06742e-06
-9.72472e-07
-4.11743e-06
-9.49986e-07
-3.21058e-06
-9.06848e-07
-2.36783e-06
-8.4275e-07
-1.60999e-06
-7.57841e-07
-9.57145e-07
-6.52846e-07
-4.27849e-07
-5.29296e-07
-3.78362e-08
-3.90013e-07
2.02363e-07
-2.402e-07
2.9113e-07
-8.87665e-08
2.43609e-07
4.75211e-08
1.08879e-07
1.3473e-07
1.08879e-07
1.16591e-07
-2.27733e-07
1.32412e-07
-1.31027e-07
-1.15417e-07
2.40006e-07
-7.01032e-07
7.25123e-07
-1.64621e-06
1.23882e-06
-2.93956e-06
1.73229e-06
-4.55003e-06
2.17843e-06
-6.43573e-06
2.56324e-06
-8.54937e-06
2.88035e-06
-1.08416e-05
3.12784e-06
-1.3263e-05
3.30641e-06
-1.57656e-05
3.4183e-06
-1.83031e-05
3.46662e-06
-2.0832e-05
3.45495e-06
-2.33111e-05
3.38707e-06
-2.57022e-05
3.26685e-06
-2.79696e-05
3.09813e-06
-3.00806e-05
2.88475e-06
-3.20052e-05
2.63053e-06
-3.37163e-05
2.33931e-06
-3.51897e-05
2.01501e-06
-3.6404e-05
1.66165e-06
-3.73412e-05
1.28348e-06
-3.79864e-05
8.84962e-07
-3.83284e-05
4.70867e-07
-3.83597e-05
4.62941e-08
-3.80767e-05
-3.83304e-07
-3.74803e-05
-8.12117e-07
-3.65755e-05
-1.23399e-06
-3.53725e-05
-1.64248e-06
-3.38861e-05
-2.03086e-06
-3.21361e-05
-2.39227e-06
-3.01474e-05
-2.71979e-06
-2.79497e-05
-3.00653e-06
-2.55778e-05
-3.24582e-06
-2.30707e-05
-3.43135e-06
-2.04719e-05
-3.5573e-06
-1.78284e-05
-3.61856e-06
-1.51899e-05
-3.61091e-06
-1.26088e-05
-3.53115e-06
-1.01382e-05
-3.37743e-06
-7.83152e-06
-3.14941e-06
-5.74069e-06
-2.84868e-06
-3.91425e-06
-2.47928e-06
-2.39498e-06
-2.04857e-06
-1.21624e-06
-1.56876e-06
-3.96866e-07
-1.05957e-06
6.72202e-08
-5.52853e-07
2.15023e-07
-1.00282e-07
1.35526e-07
2.14227e-07
2.44405e-07
1.26146e-08
-2.40347e-07
-2.32234e-07
1.13822e-07
-8.89392e-07
8.97164e-07
-2.03503e-06
1.87076e-06
-3.69186e-06
2.89564e-06
-5.84462e-06
3.88505e-06
-8.45252e-06
4.78633e-06
-1.14587e-05
5.56947e-06
-1.47973e-05
6.21887e-06
-1.83975e-05
6.72803e-06
-2.21873e-05
7.09623e-06
-2.60954e-05
7.32638e-06
-3.00524e-05
7.42366e-06
-3.3992e-05
7.39459e-06
-3.78514e-05
7.24644e-06
-4.15715e-05
6.98692e-06
-4.50973e-05
6.62392e-06
-4.8378e-05
6.16545e-06
-5.13671e-05
5.61962e-06
-5.40224e-05
4.99468e-06
-5.63065e-05
4.29911e-06
-5.81866e-05
3.54168e-06
-5.96347e-05
2.73161e-06
-6.06283e-05
1.87861e-06
-6.11505e-05
9.93021e-07
-6.119e-05
8.58559e-08
-6.07422e-05
-8.31173e-07
-5.98086e-05
-1.74564e-06
-5.83982e-05
-2.64445e-06
-5.65267e-05
-3.51393e-06
-5.42177e-05
-4.33993e-06
-5.15019e-05
-5.10803e-06
-4.8418e-05
-5.80372e-06
-4.50118e-05
-6.41272e-06
-4.13364e-05
-6.92118e-06
-3.74517e-05
-7.31609e-06
-3.34234e-05
-7.5856e-06
-2.93226e-05
-7.71938e-06
-2.52244e-05
-7.70908e-06
-2.12069e-05
-7.54869e-06
-1.73492e-05
-7.2351e-06
-1.37299e-05
-6.76868e-06
-1.04245e-05
-6.15405e-06
-7.50266e-06
-5.40117e-06
-5.02417e-06
-4.52706e-06
-3.03453e-06
-3.55839e-06
-1.55828e-06
-2.53582e-06
-5.90412e-07
-1.52072e-06
-8.59057e-08
-6.04789e-07
5.32626e-08
7.50588e-08
2.97668e-07
-1.32528e-07
-1.07819e-07
-7.16912e-07
6.98206e-07
-1.86904e-06
2.04929e-06
-3.64579e-06
3.64752e-06
-6.05814e-06
5.30799e-06
-9.08111e-06
6.90802e-06
-1.26634e-05
8.36862e-06
-1.67357e-05
9.64177e-06
-2.12173e-05
1.07004e-05
-2.6021e-05
1.15318e-05
-3.10571e-05
1.21323e-05
-3.62356e-05
1.25049e-05
-4.14684e-05
1.26565e-05
-4.66707e-05
1.25968e-05
-5.17612e-05
1.2337e-05
-5.66637e-05
1.18894e-05
-6.13066e-05
1.12668e-05
-6.56237e-05
1.04826e-05
-6.95543e-05
9.55026e-06
-7.30436e-05
8.48393e-06
-7.60425e-05
7.29801e-06
-7.85084e-05
6.00757e-06
-8.04052e-05
4.62841e-06
-8.17038e-05
3.1772e-06
-8.23824e-05
1.67163e-06
-8.2427e-05
1.30486e-07
-8.18319e-05
-1.42631e-06
-8.05998e-05
-2.97769e-06
-7.87427e-05
-4.50156e-06
-7.62818e-05
-5.97489e-06
-7.32477e-05
-7.37399e-06
-6.9681e-05
-8.67472e-06
-6.56318e-05
-9.85297e-06
-6.11595e-05
-1.0885e-05
-5.63328e-05
-1.17479e-05
-5.12287e-05
-1.24202e-05
-4.59315e-05
-1.28827e-05
-4.05323e-05
-1.31186e-05
-3.51269e-05
-1.31146e-05
-2.98141e-05
-1.28614e-05
-2.46943e-05
-1.2355e-05
-1.98659e-05
-1.1597e-05
-1.54234e-05
-1.05966e-05
-1.1453e-05
-9.37159e-06
-8.02857e-06
-7.95147e-06
-5.20654e-06
-6.38043e-06
-3.01938e-06
-4.72298e-06
-1.46828e-06
-3.07182e-06
-5.15037e-07
-1.55803e-06
-7.40395e-08
-3.65939e-07
2.23628e-07
-2.88466e-07
1.80647e-07
-1.24669e-06
1.65643e-06
-2.93701e-06
3.73961e-06
-5.3843e-06
6.09481e-06
-8.57827e-06
8.50195e-06
-1.24783e-05
1.08081e-05
-1.70201e-05
1.29104e-05
-2.21215e-05
1.47432e-05
-2.76887e-05
1.62676e-05
-3.36206e-05
1.74637e-05
-3.98128e-05
1.83245e-05
-4.61603e-05
1.88523e-05
-5.25594e-05
1.90556e-05
-5.89098e-05
1.89472e-05
-6.51154e-05
1.85426e-05
-7.10852e-05
1.78592e-05
-7.67338e-05
1.69154e-05
-8.19819e-05
1.57307e-05
-8.67569e-05
1.43253e-05
-9.09929e-05
1.27199e-05
-9.46313e-05
1.09364e-05
-9.7621e-05
8.99728e-06
-9.99189e-05
6.92634e-06
-0.00010149
4.74868e-06
-0.00010231
2.49086e-06
-0.00010236
1.81045e-07
-0.000101636
-2.15098e-06
-0.000100139
-4.47382e-06
-9.78864e-05
-6.7546e-06
-9.4902e-05
-8.95921e-06
-9.12235e-05
-1.10526e-05
-8.6899e-05
-1.29991e-05
-8.19886e-05
-1.47634e-05
-7.65631e-05
-1.63105e-05
-7.0704e-05
-1.7607e-05
-6.45026e-05
-1.86216e-05
-5.80589e-05
-1.93264e-05
-5.14804e-05
-1.96971e-05
-4.48799e-05
-1.9715e-05
-3.8374e-05
-1.93674e-05
-3.20801e-05
-1.86489e-05
-2.61137e-05
-1.75634e-05
-2.05851e-05
-1.61252e-05
-1.55951e-05
-1.43616e-05
-1.12309e-05
-1.23157e-05
-7.56073e-06
-1.00506e-05
-4.62845e-06
-7.65526e-06
-2.44771e-06
-5.25256e-06
-9.96823e-07
-3.00892e-06
-2.14976e-07
-1.14779e-06
8.65256e-09
-4.42699e-07
6.23346e-07
-1.78269e-06
2.99643e-06
-4.02644e-06
5.98335e-06
-7.16036e-06
9.22873e-06
-1.11467e-05
1.24883e-05
-1.59244e-05
1.55859e-05
-2.1413e-05
1.83989e-05
-2.75164e-05
2.08466e-05
-3.41277e-05
2.28789e-05
-4.11329e-05
2.4469e-05
-4.84148e-05
2.56064e-05
-5.58553e-05
2.62928e-05
-6.33378e-05
2.65382e-05
-7.07492e-05
2.63586e-05
-7.79806e-05
2.5774e-05
-8.49287e-05
2.48073e-05
-9.14966e-05
2.34832e-05
-9.7594e-05
2.18281e-05
-0.000103138
1.98693e-05
-0.000108054
1.76356e-05
-0.000112274
1.51568e-05
-0.000115741
1.24642e-05
-0.000118405
9.59065e-06
-0.000120228
6.57097e-06
-0.000121179
3.44185e-06
-0.00012124
2.42153e-07
-0.000120404
-2.98709e-06
-0.000118675
-6.20271e-06
-0.00011607
-9.35964e-06
-0.000112618
-1.24112e-05
-0.000108361
-1.53094e-05
-0.000103354
-1.80058e-05
-9.76657e-05
-2.0452e-05
-9.13755e-05
-2.26007e-05
-8.45759e-05
-2.44066e-05
-7.73702e-05
-2.58273e-05
-6.98715e-05
-2.68251e-05
-6.2201e-05
-2.73676e-05
-5.44863e-05
-2.74297e-05
-4.68588e-05
-2.69948e-05
-3.94512e-05
-2.60566e-05
-3.23938e-05
-2.46207e-05
-2.58116e-05
-2.27075e-05
-1.98194e-05
-2.03537e-05
-1.45182e-05
-1.76169e-05
-9.99007e-06
-1.45787e-05
-6.29368e-06
-1.13516e-05
-3.46027e-06
-8.08597e-06
-1.49083e-06
-4.97837e-06
-3.55795e-07
-2.28282e-06
-3.47142e-07
-5.9019e-07
1.21354e-06
-2.30612e-06
4.71236e-06
-5.10149e-06
8.77871e-06
-8.92233e-06
1.30496e-05
-1.37e-05
1.7266e-05
-1.935e-05
2.12358e-05
-2.57726e-05
2.48216e-05
-3.28562e-05
2.79302e-05
-4.04801e-05
3.05028e-05
-4.85179e-05
3.25067e-05
-5.684e-05
3.39286e-05
-6.5317e-05
3.47697e-05
-7.38208e-05
3.5042e-05
-8.22271e-05
3.47649e-05
-9.04165e-05
3.39634e-05
-9.82753e-05
3.26661e-05
-0.000105697
3.09046e-05
-0.000112581
2.87126e-05
-0.000118837
2.61255e-05
-0.000124382
2.31806e-05
-0.000129142
1.99167e-05
-0.000133053
1.63747e-05
-0.00013606
1.25976e-05
-0.00013812
8.63068e-06
-0.0001392
4.52191e-06
-0.000139279
3.2194e-07
-0.000138351
-3.91581e-06
-0.000136418
-8.13527e-06
-0.0001335
-1.22779e-05
-0.000129628
-1.62832e-05
-0.000124848
-2.00892e-05
-0.000119221
-2.36331e-05
-0.00011282
-2.68525e-05
-0.000105734
-2.96864e-05
-9.80648e-05
-3.20762e-05
-8.99246e-05
-3.39675e-05
-8.1438e-05
-3.53117e-05
-7.27383e-05
-3.60674e-05
-6.39657e-05
-3.62023e-05
-5.52652e-05
-3.56953e-05
-4.67832e-05
-3.45386e-05
-3.86642e-05
-3.27398e-05
-3.10473e-05
-3.03243e-05
-2.40622e-05
-2.73388e-05
-1.78248e-05
-2.38543e-05
-1.24332e-05
-1.99703e-05
-7.9641e-06
-1.58208e-05
-4.46983e-06
-1.15802e-05
-1.97767e-06
-7.47053e-06
-4.91612e-07
-3.76887e-06
-8.38754e-07
-7.29586e-07
1.94312e-06
-2.80941e-06
6.79219e-06
-6.14537e-06
1.21147e-05
-1.06438e-05
1.75481e-05
-1.62041e-05
2.28263e-05
-2.27158e-05
2.77474e-05
-3.00585e-05
3.21643e-05
-3.81033e-05
3.5975e-05
-4.6715e-05
3.91145e-05
-5.57539e-05
4.15457e-05
-6.50791e-05
4.32538e-05
-7.455e-05
4.42406e-05
-8.40285e-05
4.45205e-05
-9.33804e-05
4.41168e-05
-0.000102477
4.30599e-05
-0.000111196
4.13848e-05
-0.000119421
3.91303e-05
-0.000127047
3.6338e-05
-0.000133973
3.3052e-05
-0.000140111
2.93186e-05
-0.000145381
2.51864e-05
-0.000149712
2.07066e-05
-0.000153048
1.59328e-05
-0.000155339
1.09219e-05
-0.000156551
5.73381e-06
-0.000156661
4.31856e-07
-0.000155659
-4.91729e-06
-0.000153551
-1.02437e-05
-0.000150354
-1.54744e-05
-0.000146104
-2.0534e-05
-0.000140847
-2.53454e-05
-0.00013465
-2.98306e-05
-0.000127591
-3.39118e-05
-0.000119764
-3.75132e-05
-0.000111278
-4.05619e-05
-0.000102255
-4.29903e-05
-9.28295e-05
-4.47377e-05
-8.31442e-05
-4.57526e-05
-7.33517e-05
-4.59948e-05
-6.36091e-05
-4.54379e-05
-5.40762e-05
-4.40715e-05
-4.49117e-05
-4.19043e-05
-3.62694e-05
-3.89666e-05
-2.82945e-05
-3.53137e-05
-2.11197e-05
-3.10291e-05
-1.48613e-05
-2.62288e-05
-9.61631e-06
-2.10657e-05
-5.46086e-06
-1.57357e-05
-2.44994e-06
-1.04814e-05
-6.20598e-07
-5.59821e-06
-1.45935e-06
-8.61179e-07
2.8043e-06
-3.29084e-06
9.22185e-06
-7.15219e-06
1.5976e-05
-1.23139e-05
2.27098e-05
-1.86432e-05
2.91556e-05
-2.6003e-05
3.51072e-05
-3.42509e-05
4.04121e-05
-4.32394e-05
4.49636e-05
-5.28178e-05
4.86928e-05
-6.28331e-05
5.1561e-05
-7.31326e-05
5.35533e-05
-8.35652e-05
5.46732e-05
-9.39832e-05
5.49384e-05
-0.000104243
5.43771e-05
-0.000114209
5.30255e-05
-0.00012375
5.09256e-05
-0.000132744
4.81239e-05
-0.000141076
4.46706e-05
-0.000148643
4.06188e-05
-0.000155349
3.60244e-05
-0.000161109
3.09463e-05
-0.000165848
2.54463e-05
-0.000169505
1.95897e-05
-0.000172028
1.34451e-05
-0.00017338
7.08515e-06
-0.000173534
5.86507e-07
-0.000172482
-5.97023e-06
-0.000170225
-1.25005e-05
-0.000166783
-1.89162e-05
-0.000162191
-2.51262e-05
-0.000156499
-3.10374e-05
-0.000149774
-3.65553e-05
-0.0001421
-4.15861e-05
-0.000133575
-4.60377e-05
-0.000124315
-4.9822e-05
-0.000114449
-5.28568e-05
-0.000104118
-5.50684e-05
-9.34766e-05
-5.63938e-05
-8.26879e-05
-5.67836e-05
-7.19211e-05
-5.62047e-05
-6.13492e-05
-5.46434e-05
-5.11452e-05
-5.21082e-05
-4.14788e-05
-4.86331e-05
-3.25119e-05
-4.42805e-05
-2.43958e-05
-3.91453e-05
-1.72668e-05
-3.33577e-05
-1.12446e-05
-2.70879e-05
-6.43031e-06
-2.055e-05
-2.90704e-06
-1.40047e-05
-7.43275e-07
-7.76197e-06
-2.20263e-06
-9.85894e-07
3.79019e-06
-3.75156e-06
1.19875e-05
-8.12198e-06
2.03464e-05
-1.39305e-05
2.85183e-05
-2.1013e-05
3.62381e-05
-2.92056e-05
4.32999e-05
-3.83431e-05
4.95495e-05
-4.82587e-05
5.48793e-05
-5.87855e-05
5.92196e-05
-6.97567e-05
6.25322e-05
-8.10076e-05
6.48042e-05
-9.23767e-05
6.60424e-05
-0.000103707
6.62689e-05
-0.000114848
6.55178e-05
-0.000125654
6.38318e-05
-0.000135989
6.12608e-05
-0.000145725
5.78594e-05
-0.000154741
5.36867e-05
-0.000162928
4.88055e-05
-0.000170185
4.32817e-05
-0.000176424
3.71849e-05
-0.000181565
3.0588e-05
-0.000185544
2.3568e-05
-0.000188305
1.62061e-05
-0.000189807
8.5878e-06
-0.000190024
8.03529e-07
-0.000188943
-7.05164e-06
-0.000186566
-1.4878e-05
-0.00018291
-2.25717e-05
-0.000178011
-3.00251e-05
-0.00017192
-3.71283e-05
-0.000164706
-4.37696e-05
-0.000156454
-4.9838e-05
-0.000147268
-5.52242e-05
-0.000137266
-5.98235e-05
-0.000126585
-6.3538e-05
-0.000115374
-6.62792e-05
-0.000103796
-6.79715e-05
-9.20252e-05
-6.85547e-05
-8.02422e-05
-6.79877e-05
-6.8634e-05
-6.62516e-05
-5.73888e-05
-6.33534e-05
-4.66929e-05
-5.9329e-05
-3.67269e-05
-5.42465e-05
-2.76619e-05
-4.82102e-05
-1.96566e-05
-4.1363e-05
-1.28544e-05
-3.38901e-05
-7.38246e-06
-2.60219e-05
-3.35207e-06
-1.80351e-05
-8.61105e-07
-1.02529e-05
-3.06373e-06
-1.10484e-06
4.89504e-06
-4.19397e-06
1.50766e-05
-9.05776e-06
2.52102e-05
-1.54965e-05
3.49569e-05
-2.33159e-05
4.40576e-05
-3.23255e-05
5.23094e-05
-4.23369e-05
5.95609e-05
-5.31638e-05
6.57062e-05
-6.46223e-05
7.0678e-05
-7.65315e-05
7.44415e-05
-8.87147e-05
7.69874e-05
-0.000101
7.83278e-05
-0.000113222
7.84907e-05
-0.000125221
7.7517e-05
-0.000136847
7.54573e-05
-0.000147955
7.23695e-05
-0.000158413
6.83174e-05
-0.000168096
6.33696e-05
-0.00017689
5.75987e-05
-0.000184689
5.10811e-05
-0.000191401
4.38973e-05
-0.000196945
3.61316e-05
-0.00020125
2.7873e-05
-0.000204259
1.92153e-05
-0.000205929
1.02573e-05
-0.000206229
1.10344e-06
-0.000205144
-8.13651e-06
-0.000202674
-1.73473e-05
-0.000198837
-2.64089e-05
-0.000193666
-3.51967e-05
-0.000187211
-4.35831e-05
-0.000179541
-5.14388e-05
-0.000170745
-5.8634e-05
-0.000160928
-6.50416e-05
-0.000150213
-7.05388e-05
-0.00013874
-7.50105e-05
-0.000126667
-7.83521e-05
-0.000114165
-8.04733e-05
-0.000101418
-8.13016e-05
-8.86202e-05
-8.07859e-05
-7.59716e-05
-7.89003e-05
-6.36769e-05
-7.56481e-05
-5.19406e-05
-7.10653e-05
-4.09631e-05
-6.5224e-05
-3.09375e-05
-5.82358e-05
-2.2046e-05
-5.02545e-05
-1.44574e-05
-4.14787e-05
-8.32577e-06
-3.21536e-05
-3.79002e-06
-2.25709e-05
-9.75918e-07
-1.3067e-05
-4.03965e-06
-1.21913e-06
6.11416e-06
-4.62091e-06
1.84784e-05
-9.96394e-06
3.05533e-05
-1.70173e-05
4.20103e-05
-2.55578e-05
5.25982e-05
-3.53688e-05
6.21204e-05
-4.62387e-05
7.04309e-05
-5.79615e-05
7.74289e-05
-7.03361e-05
8.30527e-05
-8.31674e-05
8.72727e-05
-9.62661e-05
9.00862e-05
-0.00010945
9.15121e-05
-0.000122546
9.1586e-05
-0.000135386
9.03571e-05
-0.000147813
8.78846e-05
-0.000159679
8.42358e-05
-0.000170846
7.94839e-05
-0.000181184
7.37076e-05
-0.000190575
6.69899e-05
-0.000198912
5.94178e-05
-0.000206097
5.10829e-05
-0.000212047
4.20812e-05
-0.000216687
3.25136e-05
-0.000219959
2.24867e-05
-0.000221814
1.21125e-05
-0.00022222
1.50949e-06
-0.000221159
-9.19763e-06
-0.000218628
-1.9878e-05
-0.000214642
-3.03949e-05
-0.000209232
-4.06065e-05
-0.000202448
-5.03672e-05
-0.000194359
-5.95286e-05
-0.00018505
-6.79421e-05
-0.000174631
-7.5461e-05
-0.000163227
-8.19431e-05
-0.000150983
-8.72545e-05
-0.000138062
-9.12729e-05
-0.000124644
-9.38912e-05
-0.000110923
-9.50224e-05
-9.71062e-05
-9.46031e-05
-8.34081e-05
-9.25983e-05
-7.00508e-05
-8.90054e-05
-5.72579e-05
-8.38581e-05
-4.52516e-05
-7.72303e-05
-3.42484e-05
-6.9239e-05
-2.44558e-05
-6.00471e-05
-1.60695e-05
-4.9865e-05
-9.27093e-06
-3.89522e-05
-4.22681e-06
-2.7615e-05
-1.08967e-06
-1.62042e-05
-5.12932e-06
-1.32974e-06
7.44391e-06
-5.03524e-06
2.21839e-05
-1.08452e-05
3.63633e-05
-1.84992e-05
4.96643e-05
-2.77462e-05
6.18451e-05
-3.83436e-05
7.27178e-05
-5.00573e-05
8.21446e-05
-6.2661e-05
9.00327e-05
-7.59368e-05
9.63284e-05
-8.96745e-05
0.00010101
-0.000103673
0.000104085
-0.00011774
0.000105579
-0.000131693
0.000105539
-0.000145358
0.000104022
-0.000158573
0.000101099
-0.000171183
9.6846e-05
-0.000183046
9.13472e-05
-0.00019403
8.46918e-05
-0.000204014
7.69733e-05
-0.000212886
6.82898e-05
-0.000220547
5.87441e-05
-0.00022691
4.84438e-05
-0.000231898
3.75017e-05
-0.000235448
2.60368e-05
-0.00023751
1.41746e-05
-0.000238048
2.04741e-06
-0.00023704
-1.02054e-05
-0.000234481
-2.24372e-05
-0.000230381
-3.44947e-05
-0.000224769
-4.62184e-05
-0.000217692
-5.74441e-05
-0.000209217
-6.8004e-05
-0.00019943
-7.77294e-05
-0.000188438
-8.64528e-05
-0.000176369
-9.40115e-05
-0.000163373
-0.000100251
-0.000149618
-0.000105028
-0.00013529
-0.000108219
-0.000120595
-0.000109717
-0.000105752
-0.000109446
-9.09919e-05
-0.000107358
-7.65546e-05
-0.000103443
-6.26846e-05
-9.77282e-05
-4.96271e-05
-9.02878e-05
-3.7624e-05
-8.12421e-05
-2.69099e-05
-7.07612e-05
-1.77084e-05
-5.90665e-05
-1.02297e-05
-4.64308e-05
-4.66871e-06
-3.3176e-05
-1.20434e-06
-1.96686e-05
-6.33367e-06
-1.43756e-06
8.88146e-06
-5.43957e-06
2.61859e-05
-1.17063e-05
4.26299e-05
-1.99487e-05
5.79067e-05
-2.98887e-05
7.1785e-05
-4.12586e-05
8.40877e-05
-5.38017e-05
9.46876e-05
-6.72718e-05
0.000103503
-8.14335e-05
0.00011049
-9.60624e-05
0.000115639
-0.000110945
0.000118967
-0.000125879
0.000120513
-0.000140674
0.000120333
-0.000155148
0.000118497
-0.000169135
0.000115086
-0.000182476
0.000110187
-0.000195026
0.000103897
-0.000206648
9.6314e-05
-0.000217219
8.75442e-05
-0.000226625
7.76965e-05
-0.000234766
6.68847e-05
-0.00024155
5.52278e-05
-0.000246899
4.28506e-05
-0.000250746
2.98843e-05
-0.000253039
1.64672e-05
-0.000253737
2.74514e-06
-0.000252814
-1.11279e-05
-0.000250262
-2.49898e-05
-0.000246086
-3.86707e-05
-0.000240311
-5.19934e-05
-0.00023298
-6.47746e-05
-0.000224157
-7.68268e-05
-0.000213927
-8.79601e-05
-0.000202394
-9.79852e-05
-0.000189689
-0.000106717
-0.000175961
-0.000113978
-0.000161385
-0.000119605
-0.000146155
-0.000123449
-0.000130485
-0.000125387
-0.000114608
-0.000125323
-9.87713e-05
-0.000123195
-8.32338e-05
-0.00011898
-6.82621e-05
-0.0001127
-5.41263e-05
-0.000104424
-4.10956e-05
-9.42729e-05
-2.94331e-05
-8.24237e-05
-1.93927e-05
-6.9107e-05
-1.12143e-05
-5.46092e-05
-5.12207e-06
-3.92682e-05
-1.32185e-06
-2.34688e-05
-7.65552e-06
-1.5433e-06
1.04248e-05
-5.83619e-06
3.04788e-05
-1.25512e-05
4.93449e-05
-2.13716e-05
6.67272e-05
-3.19926e-05
8.24061e-05
-4.41221e-05
9.62171e-05
-5.74805e-05
0.000108046
-7.18022e-05
0.000117824
-8.68343e-05
0.000125522
-0.000102338
0.000131143
-0.000118088
0.000134717
-0.000133872
0.000136297
-0.00014949
0.000135952
-0.000164758
0.000133765
-0.000179501
0.000129829
-0.000193559
0.000124245
-0.000206783
0.00011712
-0.000219034
0.000108565
-0.000230187
9.86972e-05
-0.000240127
8.76364e-05
-0.00024875
7.55079e-05
-0.000255964
6.24418e-05
-0.000261687
4.85743e-05
-0.000265852
3.40484e-05
-0.000268399
1.90148e-05
-0.000269286
3.63241e-06
-0.000268484
-1.19308e-05
-0.000265976
-2.74976e-05
-0.000261765
-4.28818e-05
-0.000255869
-5.78885e-05
-0.000248329
-7.23156e-05
-0.000239201
-8.59546e-05
-0.000228567
-9.85941e-05
-0.00021653
-0.000110022
-0.000203219
-0.000120028
-0.000188785
-0.000128412
-0.000173406
-0.000134984
-0.000157282
-0.000139572
-0.000140639
-0.000142031
-0.000123721
-0.000142241
-0.000106792
-0.000140124
-9.01324e-05
-0.00013564
-7.40315e-05
-0.000128801
-5.87862e-05
-0.000119669
-4.46946e-05
-0.000108365
-3.20511e-05
-9.50672e-05
-2.11411e-05
-8.00169e-05
-1.22369e-05
-6.35134e-05
-5.59314e-06
-4.5912e-05
-1.44404e-06
-2.76179e-05
-9.09956e-06
-1.6476e-06
1.20724e-05
-6.2271e-06
3.50583e-05
-1.33836e-05
5.65014e-05
-2.27732e-05
7.61167e-05
-3.40646e-05
9.36976e-05
-4.69412e-05
0.000109094
-6.11013e-05
0.000122206
-7.62592e-05
0.000132982
-9.21452e-05
0.000141408
-0.000108506
0.000147504
-0.000125104
0.000151315
-0.000141718
0.000152911
-0.000158141
0.000152375
-0.000174182
0.000149806
-0.000189663
0.00014531
-0.00020442
0.000139002
-0.000218302
0.000131002
-0.00023117
0.000121433
-0.000242897
0.000110424
-0.000253366
9.8106e-05
-0.000262474
8.46152e-05
-0.000270125
7.00928e-05
-0.000276236
5.46857e-05
-0.000280736
3.85482e-05
-0.000283564
2.18426e-05
-0.000284671
4.74021e-06
-0.000284024
-1.25777e-05
-0.000281602
-2.99196e-05
-0.000277401
-4.70834e-05
-0.000271433
-6.38567e-05
-0.00026373
-8.00184e-05
-0.000254345
-9.53393e-05
-0.000243354
-0.000109585
-0.000230856
-0.00012252
-0.000216977
-0.000133908
-0.000201868
-0.000143521
-0.000185709
-0.000151143
-0.000168707
-0.000156575
-0.000151094
-0.000159643
-0.000133131
-0.000160205
-0.000115096
-0.000158158
-9.72919e-05
-0.000153445
-8.00323e-05
-0.00014606
-6.36425e-05
-0.000136059
-4.84521e-05
-0.000123555
-3.47887e-05
-0.000108731
-2.29722e-05
-9.18333e-05
-1.33094e-05
-7.31762e-05
-6.08802e-06
-5.31334e-05
-1.57271e-06
-3.21332e-05
-1.06723e-05
-1.75094e-06
1.38233e-05
-6.61398e-06
3.99214e-05
-1.42068e-05
6.40942e-05
-2.4158e-05
8.6068e-05
-3.61103e-05
0.00010565
-4.97223e-05
0.000122706
-6.46701e-05
0.000137154
-8.0648e-05
0.00014896
-9.73696e-05
0.00015813
-0.000114567
0.000164701
-0.000131991
0.00016874
-0.000149412
0.000170331
-0.000166615
0.000169578
-0.000183405
0.000166595
-0.0001996
0.000161505
-0.000215034
0.000154436
-0.000229555
0.000145523
-0.000243023
0.000134901
-0.000255311
0.000122712
-0.000266302
0.000109097
-0.000275891
9.42044e-05
-0.000283983
7.81847e-05
-0.000290493
6.11955e-05
-0.000295346
4.34014e-05
-0.000298479
2.49753e-05
-0.000299839
6.10007e-06
-0.000299386
-1.30308e-05
-0.000297093
-3.22121e-05
-0.00029295
-5.12267e-05
-0.000286961
-6.98456e-05
-0.000279151
-8.78285e-05
-0.000269565
-0.000104925
-0.000258271
-0.000120879
-0.000245363
-0.000135428
-0.000230962
-0.000148309
-0.000215217
-0.000159265
-0.00019831
-0.00016805
-0.00018045
-0.000174434
-0.00016188
-0.000178213
-0.000142871
-0.000179214
-0.00012372
-0.000177309
-0.000104749
-0.000172415
-8.63006e-05
-0.000164509
-6.87291e-05
-0.00015363
-5.23977e-05
-0.000139886
-3.76702e-05
-0.000123458
-2.49041e-05
-0.000104599
-1.44435e-05
-8.36367e-05
-6.61264e-06
-6.09643e-05
-1.70958e-06
-3.70362e-05
-1.23819e-05
-1.85377e-06
1.56771e-05
-6.9983e-06
4.50659e-05
-1.50234e-05
7.21193e-05
-2.55301e-05
9.65747e-05
-3.81346e-05
0.000118254
-5.24704e-05
0.000137042
-6.81913e-05
0.000152875
-8.49718e-05
0.000165741
-0.000102508
0.000175666
-0.000120519
0.000182712
-0.000138743
0.000186964
-0.000156942
0.00018853
-0.000174896
0.000187532
-0.000192404
0.000184103
-0.000209283
0.000178384
-0.000225365
0.000170518
-0.000240498
0.000160656
-0.000254543
0.000148946
-0.000267373
0.000135542
-0.000278872
0.000120596
-0.000288936
0.000104268
-0.000297468
8.6717e-05
-0.000304383
6.81107e-05
-0.000309605
4.86228e-05
-0.000313065
2.8436e-05
-0.000314708
7.74322e-06
-0.000314488
-1.32509e-05
-0.000312372
-3.43288e-05
-0.000308339
-5.52592e-05
-0.000302387
-7.57973e-05
-0.000294532
-9.56844e-05
-0.000284807
-0.00011465
-0.000273274
-0.000132413
-0.000260017
-0.000148685
-0.000245151
-0.000163175
-0.000228821
-0.000175595
-0.000211206
-0.000185665
-0.000192521
-0.00019312
-0.000173013
-0.000197721
-0.000152965
-0.000199263
-0.000132691
-0.000197582
-0.000112536
-0.00019257
-9.28691e-05
-0.000184176
-7.4077e-05
-0.000172422
-5.65592e-05
-0.000157404
-4.07186e-05
-0.000139299
-2.69539e-05
-0.000118364
-1.56505e-05
-9.49401e-05
-7.17273e-06
-6.9442e-05
-1.85632e-06
-4.23526e-05
-1.42382e-05
-1.95647e-06
1.76335e-05
-7.38139e-06
5.04908e-05
-1.5836e-05
8.0574e-05
-2.68932e-05
0.000107632
-4.01417e-05
0.000131503
-5.51899e-05
0.00015209
-7.16685e-05
0.000169353
-8.9232e-05
0.000183304
-0.00010756
0.000193994
-0.000126356
0.000201508
-0.000145349
0.000205958
-0.000164292
0.000207473
-0.00018296
0.0002062
-0.000201148
0.000202292
-0.000218673
0.000195908
-0.000235365
0.000187211
-0.000251075
0.000176366
-0.000265664
0.000163536
-0.000279009
0.000148886
-0.000290994
0.000132582
-0.000301517
0.00011479
-0.000310482
9.56822e-05
-0.000317804
7.54324e-05
-0.000323404
5.4223e-05
-0.000327213
3.22448e-05
-0.000329169
9.6995e-06
-0.000329221
-1.31986e-05
-0.000327329
-3.62212e-05
-0.000323464
-5.91244e-05
-0.000317613
-8.16483e-05
-0.00030978
-0.000103517
-0.00029999
-0.00012444
-0.000288291
-0.000144112
-0.000274758
-0.000162218
-0.000259496
-0.000178437
-0.000242644
-0.000192447
-0.000224378
-0.000203931
-0.00020491
-0.000212587
-0.000184494
-0.000218137
-0.000163424
-0.000220334
-0.000142029
-0.000218977
-0.000120677
-0.000213922
-9.97648e-05
-0.000205088
-7.97138e-05
-0.000192473
-6.09621e-05
-0.000176156
-4.39557e-05
-0.000156305
-2.91383e-05
-0.000133182
-1.69412e-05
-0.000107137
-7.77391e-06
-7.86093e-05
-2.01457e-06
-4.8112e-05
-1.62527e-05
-2.05942e-06
1.9693e-05
-7.76456e-06
5.6196e-05
-1.66472e-05
8.94566e-05
-2.82507e-05
0.000119235
-4.21358e-05
0.000145388
-5.78846e-05
0.000167839
-7.51044e-05
0.000186573
-9.34289e-05
0.000201629
-0.00011252
0.000213086
-0.000132069
0.000221057
-0.000151793
0.000225682
-0.000171438
0.000227118
-0.000190775
0.000225536
-0.000209596
0.000221113
-0.000227717
0.000214029
-0.000244972
0.000204466
-0.000261212
0.000192606
-0.000276303
0.000178627
-0.000290124
0.000162706
-0.000302563
0.000145021
-0.00031352
0.000125748
-0.000322903
0.000105065
-0.000330625
8.31547e-05
-0.000336609
6.02064e-05
-0.000340781
3.64173e-05
-0.000343078
1.1996e-05
-0.000343441
-1.28355e-05
-0.000341822
-3.78398e-05
-0.000338185
-6.27621e-05
-0.000332503
-8.73294e-05
-0.000324771
-0.00011125
-0.000314998
-0.000134213
-0.000303219
-0.00015589
-0.000289496
-0.00017594
-0.000273923
-0.00019401
-0.000256628
-0.000209742
-0.000237779
-0.00022278
-0.000217588
-0.000232779
-0.00019631
-0.000239415
-0.000174246
-0.000242397
-0.000151743
-0.00024148
-0.000129188
-0.000236476
-0.000107009
-0.000227268
-8.56629e-05
-0.00021382
-6.56296e-05
-0.000196189
-4.74017e-05
-0.000174533
-3.14729e-05
-0.00014911
-1.83262e-05
-0.000120284
-8.42167e-06
-8.85139e-05
-2.18596e-06
-5.43477e-05
-1.84387e-05
-2.16301e-06
2.1856e-05
-8.14924e-06
6.21822e-05
-1.74595e-05
9.87669e-05
-2.96066e-05
0.000131382
-4.41214e-05
0.000159903
-6.05588e-05
0.000184276
-7.85014e-05
0.000204516
-9.75619e-05
0.000220689
-0.000117385
0.000232909
-0.000137647
0.000241319
-0.000158057
0.000246092
-0.000178353
0.000247414
-0.000198302
0.000245485
-0.000217697
0.000240508
-0.000236354
0.000232686
-0.000254111
0.000222223
-0.000270822
0.000209317
-0.000286359
0.000194163
-0.000300604
0.000176952
-0.000313453
0.00015787
-0.000324809
0.000137104
-0.000334583
0.000114838
-0.00034269
9.12622e-05
-0.000349054
6.65697e-05
-0.000353599
4.0963e-05
-0.000356259
1.46556e-05
-0.000356969
-1.2125e-05
-0.000355675
-3.91346e-05
-0.000352327
-6.61096e-05
-0.00034689
-9.27661e-05
-0.000339342
-0.000118798
-0.000329679
-0.000143876
-0.00031792
-0.00016765
-0.000304109
-0.000189751
-0.000288325
-0.000209794
-0.000270683
-0.000227384
-0.000251341
-0.000242122
-0.000230504
-0.000253616
-0.000208426
-0.000261493
-0.000185414
-0.000265409
-0.000161828
-0.000265067
-0.000138076
-0.000260227
-0.000114616
-0.000250727
-9.1943e-05
-0.000236493
-7.05813e-05
-0.000217551
-5.10749e-05
-0.000194039
-3.39729e-05
-0.000166212
-1.98157e-05
-0.000134441
-9.12141e-06
-9.92082e-05
-2.37211e-06
-6.1097e-05
-2.08108e-05
-2.26775e-06
2.41237e-05
-8.53713e-06
6.84516e-05
-1.82764e-05
0.000108506
-3.09654e-05
0.000144071
-4.61038e-05
0.000175041
-6.32173e-05
0.00020139
-8.18626e-05
0.000223161
-0.00010163
0.000240457
-0.000122147
0.000253426
-0.000143077
0.000262249
-0.000164118
0.000267133
-0.000185003
0.000268299
-0.000205497
0.000265979
-0.000225393
0.000260404
-0.000244511
0.000251804
-0.000262693
0.000240405
-0.000279801
0.000226425
-0.000295712
0.000210074
-0.000310316
0.000191556
-0.000323516
0.00017107
-0.000335221
0.000148808
-0.000345346
0.000124963
-0.000353811
9.97278e-05
-0.000360541
7.32995e-05
-0.000365461
4.58832e-05
-0.000368501
1.7695e-05
-0.000369591
-1.10344e-05
-0.000368669
-4.00567e-05
-0.000365676
-6.91025e-05
-0.000360563
-9.7879e-05
-0.000353293
-0.000126068
-0.000343844
-0.000153325
-0.000332216
-0.000179278
-0.000318435
-0.000203532
-0.00030256
-0.000225669
-0.000284689
-0.000245255
-0.000264964
-0.000261846
-0.000243579
-0.000275
-0.000220785
-0.000284287
-0.00019689
-0.000289305
-0.000172264
-0.000289693
-0.000147336
-0.000285155
-0.000122592
-0.000275471
-9.85671e-05
-0.000260518
-7.58338e-05
-0.000240284
-5.49919e-05
-0.000214881
-3.66521e-05
-0.000184552
-2.14198e-05
-0.000149673
-9.87855e-06
-0.000110749
-2.57468e-06
-6.84009e-05
-2.33855e-05
-2.37424e-06
2.6498e-05
-8.93044e-06
7.50078e-05
-1.91019e-05
0.000118678
-3.23332e-05
0.000157303
-4.80899e-05
0.000190798
-6.58667e-05
0.000219166
-8.51924e-05
0.000242487
-0.000105635
0.000260899
-0.000126802
0.000274593
-0.000148344
0.00028379
-0.00016995
0.000288739
-0.00019135
0.000289699
-0.000212306
0.000286936
-0.000232616
0.000280714
-0.000252103
0.000271292
-0.000270618
0.00025892
-0.00028803
0.000243836
-0.000304225
0.000226269
-0.000319105
0.000206436
-0.000332579
0.000184544
-0.000344566
0.000160795
-0.000354987
0.000135385
-0.00036377
0.00010851
-0.00037084
8.03699e-05
-0.000376126
5.11688e-05
-0.000379554
2.11231e-05
-0.000381052
-9.53629e-06
-0.000380549
-4.05599e-05
-0.000377976
-7.16756e-05
-0.00037327
-0.000102585
-0.000366377
-0.000132961
-0.000357257
-0.000162445
-0.000345887
-0.000190648
-0.000332272
-0.000217148
-0.000316446
-0.000241495
-0.000298485
-0.000263216
-0.000278513
-0.000281819
-0.000256706
-0.000296807
-0.000233304
-0.000307689
-0.000208615
-0.000313994