/*--------------------------------*- C++ -*----------------------------------*\
| =========                 |                                                 |
| \\      /  F ield         | OpenFOAM: The Open Source CFD Toolbox           |
|  \\    /   O peration     | Version:  2312                                  |
|   \\  /    A nd           | Website:  www.openfoam.com                      |
|    \\/     M anipulation  |                                                 |
\*---------------------------------------------------------------------------*/
FoamFile
{
    version     2.0;
    format      ascii;
    arch        "LSB;label=32;scalar=64";
    class       volVectorField;
    location    "50";
    object      U;
}
// * * * * * * * * * * * * * * * * * * * * * * * * * * * * * * * * * * * * * //

dimensions      [0 1 -1 0 0 0 0];

internalField   nonuniform List<vector> 
2601
(
(3.12535e-05 -3.1202e-05 0)
(9.43595e-05 -3.85587e-05 0)
(0.000130685 -1.97287e-05 0)
(0.000100266 7.62173e-06 0)
(-9.89219e-06 3.57726e-05 0)
(-0.000197916 6.16374e-05 0)
(-0.000456536 8.40287e-05 0)
(-0.0007763 0.000102624 0)
(-0.00114686 0.000117472 0)
(-0.00155774 0.000128767 0)
(-0.00199872 0.000136755 0)
(-0.00246003 0.000141689 0)
(-0.00293246 0.000143818 0)
(-0.00340741 0.000143373 0)
(-0.00387684 0.000140569 0)
(-0.00433333 0.000135603 0)
(-0.00476999 0.000128654 0)
(-0.00518051 0.00011989 0)
(-0.00555908 0.000109466 0)
(-0.00590041 9.75354e-05 0)
(-0.00619973 8.42457e-05 0)
(-0.00645279 6.97494e-05 0)
(-0.0066559 5.42052e-05 0)
(-0.00680591 3.77825e-05 0)
(-0.00690033 2.06642e-05 0)
(-0.00693727 3.04969e-06 0)
(-0.00691559 -1.48434e-05 0)
(-0.00683489 -3.27786e-05 0)
(-0.00669562 -5.05002e-05 0)
(-0.00649905 -6.7735e-05 0)
(-0.00624739 -8.4194e-05 0)
(-0.0059438 -9.95766e-05 0)
(-0.00559241 -0.000113574 0)
(-0.0051983 -0.000125877 0)
(-0.00476756 -0.000136177 0)
(-0.00430718 -0.000144178 0)
(-0.00382504 -0.000149599 0)
(-0.00332982 -0.000152183 0)
(-0.00283093 -0.000151704 0)
(-0.00233832 -0.000147971 0)
(-0.0018624 -0.000140831 0)
(-0.00141384 -0.00013018 0)
(-0.00100336 -0.000115967 0)
(-0.00064148 -9.82072e-05 0)
(-0.000338179 -7.70203e-05 0)
(-0.000102353 -5.2722e-05 0)
(5.88612e-05 -2.60583e-05 0)
(0.000141572 1.46581e-06 0)
(0.000148073 2.63824e-05 0)
(9.60911e-05 4.10424e-05 0)
(2.95625e-05 2.95132e-05 0)
(3.90401e-05 -9.45686e-05 0)
(8.87437e-05 -8.77306e-05 0)
(4.09371e-05 1.52318e-05 0)
(-0.000165493 0.000155497 0)
(-0.000555203 0.000303717 0)
(-0.00112865 0.000444801 0)
(-0.00187355 0.000571085 0)
(-0.0027705 0.00067903 0)
(-0.00379624 0.000767319 0)
(-0.00492578 0.000835823 0)
(-0.00613376 0.000885056 0)
(-0.0073952 0.000915875 0)
(-0.008686 0.000929309 0)
(-0.00998321 0.00092646 0)
(-0.0112652 0.000908443 0)
(-0.0125117 0.000876359 0)
(-0.0137039 0.000831282 0)
(-0.0148243 0.000774259 0)
(-0.0158569 0.000706315 0)
(-0.0167872 0.000628471 0)
(-0.0176021 0.000541757 0)
(-0.0182899 0.000447235 0)
(-0.0188406 0.000346014 0)
(-0.0192457 0.00023927 0)
(-0.0194986 0.00012826 0)
(-0.0195945 1.43352e-05 0)
(-0.0195305 -0.000101054 0)
(-0.0193058 -0.000216354 0)
(-0.0189221 -0.00032991 0)
(-0.018383 -0.000439978 0)
(-0.0176951 -0.000544738 0)
(-0.016867 -0.000642319 0)
(-0.0159102 -0.000730822 0)
(-0.0148386 -0.000808358 0)
(-0.0136688 -0.000873084 0)
(-0.0124196 -0.000923242 0)
(-0.011112 -0.000957207 0)
(-0.00976916 -0.000973529 0)
(-0.00841594 -0.000970985 0)
(-0.00707843 -0.000948622 0)
(-0.00578366 -0.000905817 0)
(-0.00455899 -0.000842337 0)
(-0.00343147 -0.000758429 0)
(-0.00242698 -0.000654961 0)
(-0.00156919 -0.000533667 0)
(-0.000878007 -0.000397621 0)
(-0.000367517 -0.000252162 0)
(-4.28136e-05 -0.000106405 0)
(0.000104938 2.34955e-05 0)
(0.000109652 0.000108735 0)
(4.1282e-05 9.60055e-05 0)
(2.11297e-05 -0.000132502 0)
(-1.1624e-05 -4.09463e-05 0)
(-0.000228758 0.000232603 0)
(-0.000682841 0.000584851 0)
(-0.00139719 0.000958173 0)
(-0.00237226 0.00131828 0)
(-0.0035924 0.00164529 0)
(-0.00503172 0.00192846 0)
(-0.0066582 0.00216256 0)
(-0.00843651 0.00234573 0)
(-0.01033 0.00247813 0)
(-0.0123017 0.00256115 0)
(-0.0143159 0.00259691 0)
(-0.0163376 0.00258794 0)
(-0.0183341 0.00253696 0)
(-0.020274 0.00244679 0)
(-0.0221283 0.00232028 0)
(-0.0238701 0.00216028 0)
(-0.0254745 0.00196965 0)
(-0.0269188 0.00175128 0)
(-0.0281828 0.00150811 0)
(-0.0292485 0.00124321 0)
(-0.0301004 0.000959752 0)
(-0.0307255 0.000661126 0)
(-0.0311138 0.000350926 0)
(-0.031258 3.29874e-05 0)
(-0.0311541 -0.000288592 0)
(-0.0308011 -0.000609456 0)
(-0.0302019 -0.000925001 0)
(-0.0293625 -0.0012304 0)
(-0.028293 -0.00152066 0)
(-0.0270073 -0.00179066 0)
(-0.0255231 -0.00203525 0)
(-0.0238619 -0.00224934 0)
(-0.022049 -0.00242798 0)
(-0.0201133 -0.00256649 0)
(-0.0180869 -0.00266061 0)
(-0.0160048 -0.00270659 0)
(-0.0139044 -0.00270135 0)
(-0.0118251 -0.00264262 0)
(-0.00980701 -0.00252912 0)
(-0.00789073 -0.00236078 0)
(-0.00611585 -0.00213897 0)
(-0.00451977 -0.00186697 0)
(-0.00313604 -0.00155056 0)
(-0.0019922 -0.0011991 0)
(-0.00110702 -0.00082739 0)
(-0.000486747 -0.000458584 0)
(-0.000120089 -0.000128827 0)
(2.90073e-05 0.000105407 0)
(2.77435e-05 0.000149284 0)
(-5.21612e-06 -0.000105419 0)
(-0.000150422 0.000163314 0)
(-0.000582032 0.000686474 0)
(-0.00132631 0.00132481 0)
(-0.00239571 0.0019944 0)
(-0.00378659 0.00264126 0)
(-0.00547865 0.00323166 0)
(-0.00744011 0.00374578 0)
(-0.00963198 0.00417288 0)
(-0.0120109 0.00450817 0)
(-0.0145314 0.00475073 0)
(-0.0171474 0.0049021 0)
(-0.0198132 0.00496541 0)
(-0.0224847 0.00494477 0)
(-0.0251193 0.00484486 0)
(-0.0276769 0.00467068 0)
(-0.0301196 0.00442744 0)
(-0.0324124 0.00412043 0)
(-0.0345229 0.00375505 0)
(-0.0364216 0.00333684 0)
(-0.0380818 0.00287146 0)
(-0.0394803 0.00236481 0)
(-0.0405969 0.00182308 0)
(-0.041415 0.0012528 0)
(-0.0419214 0.000660911 0)
(-0.0421071 5.47801e-05 0)
(-0.0419669 -0.00055775 0)
(-0.0415 -0.00116838 0)
(-0.0407102 -0.00176837 0)
(-0.0396058 -0.00234862 0)
(-0.0382 -0.00289972 0)
(-0.0365111 -0.0034121 0)
(-0.0345621 -0.00387613 0)
(-0.032381 -0.00428235 0)
(-0.0300006 -0.00462163 0)
(-0.0274581 -0.00488537 0)
(-0.0247947 -0.00506579 0)
(-0.0220553 -0.00515612 0)
(-0.0192878 -0.00515092 0)
(-0.0165421 -0.00504638 0)
(-0.0138693 -0.0048406 0)
(-0.0113203 -0.00453406 0)
(-0.00894479 -0.00413007 0)
(-0.00678933 -0.00363558 0)
(-0.00489534 -0.00306213 0)
(-0.00329677 -0.00242757 0)
(-0.0020172 -0.00175851 0)
(-0.00106604 -0.00109424 0)
(-0.000434128 -0.00049194 0)
(-9.28446e-05 -3.45733e-05 0)
(4.92215e-06 0.000147786 0)
(-3.29596e-05 9.4572e-07 0)
(-0.00030144 0.000554041 0)
(-0.000968992 0.00140779 0)
(-0.00202619 0.00239871 0)
(-0.0034683 0.00342203 0)
(-0.00528388 0.00440657 0)
(-0.00744593 0.00530549 0)
(-0.00991617 0.00608964 0)
(-0.0126491 0.00674214 0)
(-0.0155944 0.00725463 0)
(-0.0186994 0.00762451 0)
(-0.0219102 0.00785312 0)
(-0.0251735 0.00794445 0)
(-0.0284371 0.00790417 0)
(-0.0316508 0.0077391 0)
(-0.0347667 0.00745671 0)
(-0.0377398 0.00706494 0)
(-0.0405281 0.00657203 0)
(-0.0430927 0.00598648 0)
(-0.0453984 0.00531706 0)
(-0.0474133 0.00457283 0)
(-0.0491095 0.00376325 0)
(-0.0504627 0.00289825 0)
(-0.0514533 0.00198832 0)
(-0.0520656 0.00104456 0)
(-0.0522888 7.87501e-05 0)
(-0.0521171 -0.000896614 0)
(-0.0515496 -0.00186836 0)
(-0.050591 -0.00282268 0)
(-0.0492515 -0.00374519 0)
(-0.0475471 -0.00462113 0)
(-0.0454994 -0.00543547 0)
(-0.0431363 -0.00617322 0)
(-0.040491 -0.00681961 0)
(-0.0376024 -0.00736048 0)
(-0.0345149 -0.00778257 0)
(-0.0312773 -0.0080739 0)
(-0.0279427 -0.00822421 0)
(-0.0245675 -0.00822535 0)
(-0.0212105 -0.0080718 0)
(-0.0179318 -0.00776115 0)
(-0.0147911 -0.00729476 0)
(-0.0118465 -0.00667853 0)
(-0.00915223 -0.00592389 0)
(-0.00675697 -0.00504921 0)
(-0.00470098 -0.00408181 0)
(-0.0030137 -0.00306088 0)
(-0.00171009 -0.00204169 0)
(-0.000786948 -0.00110072 0)
(-0.000229389 -0.000343208 0)
(-1.99563e-05 7.54469e-05 0)
(-5.95328e-05 0.000187609 0)
(-0.000452413 0.00113992 0)
(-0.00136256 0.0024102 0)
(-0.00274154 0.00382092 0)
(-0.00456388 0.0052523 0)
(-0.00680753 0.00661954 0)
(-0.00943675 0.00786452 0)
(-0.0124057 0.00894954 0)
(-0.015662 0.00985177 0)
(-0.019149 0.0105591 0)
(-0.0228072 0.0110671 0)
(-0.0265763 0.0113768 0)
(-0.0303963 0.0114928 0)
(-0.0342083 0.0114225 0)
(-0.0379557 0.0111749 0)
(-0.0415842 0.0107601 0)
(-0.0450427 0.0101892 0)
(-0.0482833 0.00947375 0)
(-0.0512619 0.00862576 0)
(-0.0539381 0.00765777 0)
(-0.0562757 0.0065828 0)
(-0.0582428 0.00541447 0)
(-0.0598119 0.00416712 0)
(-0.0609603 0.00285584 0)
(-0.0616705 0.00149663 0)
(-0.0619302 0.000106434 0)
(-0.0617328 -0.00129686 0)
(-0.0610774 -0.00269439 0)
(-0.0599693 -0.00406647 0)
(-0.0584202 -0.00539265 0)
(-0.0564483 -0.00665194 0)
(-0.0540784 -0.00782309 0)
(-0.0513417 -0.00888489 0)
(-0.0482762 -0.00981653 0)
(-0.0449259 -0.0105981 0)
(-0.0413408 -0.011211 0)
(-0.0375763 -0.0116386 0)
(-0.0336924 -0.0118665 0)
(-0.0297527 -0.0118837 0)
(-0.0258237 -0.0116827 0)
(-0.021973 -0.0112607 0)
(-0.0182682 -0.0106201 0)
(-0.0147748 -0.00976956 0)
(-0.0115546 -0.00872559 0)
(-0.00866303 -0.0075138 0)
(-0.00614751 -0.00617122 0)
(-0.00404466 -0.00474939 0)
(-0.00237715 -0.00331836 0)
(-0.00115066 -0.00197142 0)
(-0.00036758 -0.000831356 0)
(-4.39526e-05 -7.01079e-05 0)
(-8.4166e-05 0.000451623 0)
(-0.000598023 0.00192018 0)
(-0.00174894 0.003696 0)
(-0.00344964 0.00559502 0)
(-0.0056525 0.00748783 0)
(-0.00832293 0.00927968 0)
(-0.0114149 0.0109036 0)
(-0.0148739 0.0123148 0)
(-0.0186401 0.0134853 0)
(-0.0226502 0.0143996 0)
(-0.0268384 0.0150516 0)
(-0.0311386 0.015442 0)
(-0.0354848 0.0155762 0)
(-0.0398124 0.0154633 0)
(-0.0440591 0.0151146 0)
(-0.0481654 0.0145434 0)
(-0.052075 0.0137637 0)
(-0.0557351 0.012791 0)
(-0.0590971 0.0116411 0)
(-0.0621164 0.0103307 0)
(-0.0647529 0.00887735 0)
(-0.0669714 0.00729927 0)
(-0.0687416 0.00561571 0)
(-0.0700384 0.00384698 0)
(-0.0708424 0.00201456 0)
(-0.07114 0.000141144 0)
(-0.0709237 -0.00174931 0)
(-0.0701926 -0.00363164 0)
(-0.0689525 -0.00547955 0)
(-0.067216 -0.00726586 0)
(-0.065003 -0.00896267 0)
(-0.0623406 -0.0105418 0)
(-0.0592632 -0.0119751 0)
(-0.0558122 -0.0132351 0)
(-0.052036 -0.0142956 0)
(-0.0479894 -0.0151318 0)
(-0.0437332 -0.0157221 0)
(-0.0393333 -0.0160476 0)
(-0.0348597 -0.0160938 0)
(-0.0303856 -0.0158513 0)
(-0.0259855 -0.0153165 0)
(-0.0217342 -0.0144929 0)
(-0.0177044 -0.0133921 0)
(-0.0139652 -0.0120356 0)
(-0.0105798 -0.0104561 0)
(-0.00760317 -0.00870024 0)
(-0.00508071 -0.00683092 0)
(-0.00304456 -0.00493144 0)
(-0.0015112 -0.00310913 0)
(-0.000501945 -0.00150022 0)
(-6.63044e-05 -0.000286768 0)
(-0.000106837 0.000788913 0)
(-0.000736522 0.00288959 0)
(-0.00212212 0.00526111 0)
(-0.00413937 0.00771799 0)
(-0.00671834 0.0101255 0)
(-0.00981092 0.0123825 0)
(-0.0133597 0.0144157 0)
(-0.0173004 0.016175 0)
(-0.0215654 0.0176284 0)
(-0.0260842 0.0187578 0)
(-0.030785 0.019556 0)
(-0.0355958 0.0200235 0)
(-0.0404452 0.0201669 0)
(-0.0452637 0.0199972 0)
(-0.0499841 0.0195282 0)
(-0.0545421 0.0187763 0)
(-0.058877 0.0177592 0)
(-0.0629321 0.0164961 0)
(-0.0666548 0.0150072 0)
(-0.069997 0.0133138 0)
(-0.0729154 0.0114381 0)
(-0.075372 0.00940338 0)
(-0.0773338 0.00723432 0)
(-0.0787738 0.00495684 0)
(-0.0796707 0.00259838 0)
(-0.0800098 0.000187891 0)
(-0.0797828 -0.0022441 0)
(-0.0789883 -0.00466556 0)
(-0.0776322 -0.00704309 0)
(-0.0757279 -0.00934216 0)
(-0.0732964 -0.0115274 0)
(-0.0703666 -0.013563 0)
(-0.0669751 -0.0154135 0)
(-0.0631663 -0.017044 0)
(-0.0589919 -0.0184212 0)
(-0.054511 -0.0195141 0)
(-0.049789 -0.0202951 0)
(-0.0448968 -0.0207404 0)
(-0.0399103 -0.0208319 0)
(-0.0349086 -0.0205574 0)
(-0.0299731 -0.0199126 0)
(-0.0251854 -0.0189016 0)
(-0.0206255 -0.0175389 0)
(-0.0163704 -0.0158505 0)
(-0.0124913 -0.013876 0)
(-0.00905215 -0.0116706 0)
(-0.00610812 -0.00930778 0)
(-0.00370218 -0.00688226 0)
(-0.00186284 -0.00451303 0)
(-0.000630571 -0.00234654 0)
(-8.68419e-05 -0.000570941 0)
(-0.000127792 0.0011953 0)
(-0.000867858 0.00404114 0)
(-0.00248037 0.00709836 0)
(-0.00480643 0.0101833 0)
(-0.00775445 0.0131593 0)
(-0.0112624 0.0159216 0)
(-0.0152608 0.0183933 0)
(-0.0196752 0.0205207 0)
(-0.0244291 0.0222694 0)
(-0.0294451 0.0236196 0)
(-0.0346447 0.0245636 0)
(-0.0399505 0.0251025 0)
(-0.0452859 0.0252445 0)
(-0.0505767 0.0250025 0)
(-0.0557514 0.0243933 0)
(-0.0607416 0.0234366 0)
(-0.0654829 0.0221541 0)
(-0.0699151 0.0205691 0)
(-0.0739822 0.0187062 0)
(-0.0776331 0.0165916 0)
(-0.080822 0.0142526 0)
(-0.0835081 0.0117179 0)
(-0.0856564 0.00901773 0)
(-0.087238 0.00618413 0)
(-0.0882299 0.0032508 0)
(-0.0886162 0.000253336 0)
(-0.0883876 -0.00277076 0)
(-0.0875422 -0.00578216 0)
(-0.0860856 -0.00873991 0)
(-0.0840315 -0.0116017 0)
(-0.0814015 -0.014324 0)
(-0.0782257 -0.0168633 0)
(-0.0745424 -0.0191757 0)
(-0.0703981 -0.0212186 0)
(-0.0658475 -0.0229511 0)
(-0.060953 -0.0243352 0)
(-0.0557838 -0.0253367 0)
(-0.0504159 -0.0259267 0)
(-0.0449301 -0.0260825 0)
(-0.0394116 -0.0257889 0)
(-0.0339482 -0.0250402 0)
(-0.0286285 -0.0238409 0)
(-0.0235404 -0.0222074 0)
(-0.0187689 -0.0201701 0)
(-0.0143943 -0.0177745 0)
(-0.0104905 -0.0150838 0)
(-0.00712335 -0.0121807 0)
(-0.00434774 -0.00916978 0)
(-0.00220473 -0.00617992 0)
(-0.000753653 -0.00336565 0)
(-0.000105821 -0.00091922 0)
(-0.000147339 0.00166696 0)
(-0.000992711 0.0053675 0)
(-0.00282411 0.00919943 0)
(-0.00545038 0.0129828 0)
(-0.0087592 0.0165813 0)
(-0.0126747 0.0198895 0)
(-0.017115 0.0228285 0)
(-0.0219948 0.0253434 0)
(-0.027229 0.0273984 0)
(-0.0327321 0.0289736 0)
(-0.0384196 0.0300616 0)
(-0.044208 0.0306649 0)
(-0.0500161 0.0307934 0)
(-0.0557651 0.0304629 0)
(-0.0613795 0.0296933 0)
(-0.0667875 0.0285081 0)
(-0.0719213 0.0269329 0)
(-0.0767176 0.0249956 0)
(-0.0811176 0.0227255 0)
(-0.0850679 0.0201539 0)
(-0.0885201 0.0173133 0)
(-0.0914312 0.014238 0)
(-0.0937645 0.0109644 0)
(-0.0954891 0.00753059 0)
(-0.0965807 0.00397685 0)
(-0.0970217 0.000345717 0)
(-0.0968019 -0.00331803 0)
(-0.0959186 -0.00696748 0)
(-0.0943768 -0.0105537 0)
(-0.09219 -0.0140262 0)
(-0.08938 -0.0173332 0)
(-0.0859773 -0.0204223 0)
(-0.0820214 -0.0232413 0)
(-0.0775604 -0.0257391 0)
(-0.0726513 -0.0278666 0)
(-0.0673591 -0.0295781 0)
(-0.0617567 -0.0308325 0)
(-0.0559243 -0.0315945 0)
(-0.0499477 -0.0318365 0)
(-0.043918 -0.0315397 0)
(-0.0379293 -0.0306961 0)
(-0.0320778 -0.0293098 0)
(-0.0264594 -0.0273988 0)
(-0.0211682 -0.0249967 0)
(-0.0162942 -0.0221545 0)
(-0.011922 -0.0189421 0)
(-0.00812936 -0.0154503 0)
(-0.00498363 -0.0117927 0)
(-0.0025388 -0.00810649 0)
(-0.000872391 -0.0045532 0)
(-0.000123631 -0.00132869 0)
(-0.000165773 0.00220067 0)
(-0.00111203 0.00686186 0)
(-0.00315481 0.011556 0)
(-0.00607281 0.0161078 0)
(-0.00973394 0.0203834 0)
(-0.0140487 0.024278 0)
(-0.0189229 0.0277135 0)
(-0.0242603 0.0306348 0)
(-0.0299664 0.0330067 0)
(-0.035948 0.0348103 0)
(-0.0421139 0.0360396 0)
(-0.0483749 0.0366992 0)
(-0.054645 0.0368017 0)
(-0.0608411 0.036366 0)
(-0.0668842 0.0354159 0)
(-0.072699 0.0339786 0)
(-0.078215 0.0320844 0)
(-0.0833662 0.0297656 0)
(-0.0880916 0.0270568 0)
(-0.0923352 0.0239943 0)
(-0.0960469 0.0206161 0)
(-0.0991818 0.0169625 0)
(-0.101701 0.0130758 0)
(-0.103573 0.00900047 0)
(-0.10477 0.00478359 0)
(-0.105276 0.000474784 0)
(-0.105076 -0.00387372 0)
(-0.104169 -0.00820716 0)
(-0.102558 -0.0124684 0)
(-0.100255 -0.0165985 0)
(-0.0972825 -0.0205367 0)
(-0.0936709 -0.0242219 0)
(-0.08946 -0.0275926 0)
(-0.084699 -0.0305888 0)
(-0.0794463 -0.0331527 0)
(-0.0737695 -0.03523 0)
(-0.0677445 -0.0367718 0)
(-0.0614553 -0.0377361 0)
(-0.0549928 -0.0380891 0)
(-0.0484537 -0.0378077 0)
(-0.041939 -0.0368807 0)
(-0.0355524 -0.0353111 0)
(-0.0293986 -0.0331173 0)
(-0.0235815 -0.0303355 0)
(-0.0182017 -0.0270208 0)
(-0.0133554 -0.0232492 0)
(-0.00913309 -0.0191188 0)
(-0.00561505 -0.014751 0)
(-0.00286842 -0.0102907 0)
(-0.000988441 -0.00590617 0)
(-0.000140686 -0.00179729 0)
(-0.000183353 0.00279375 0)
(-0.0012268 0.00851823 0)
(-0.00347436 0.0141604 0)
(-0.00667626 0.0195501 0)
(-0.0106816 0.0245571 0)
(-0.0153877 0.0290792 0)
(-0.0206879 0.0330402 0)
(-0.0264751 0.0363869 0)
(-0.0326452 0.0390862 0)
(-0.0390972 0.0411212 0)
(-0.0457331 0.0424886 0)
(-0.052458 0.0431961 0)
(-0.0591811 0.0432597 0)
(-0.0658152 0.0427022 0)
(-0.0722779 0.0415514 0)
(-0.0784911 0.0398391 0)
(-0.0843815 0.0376003 0)
(-0.0898809 0.0348723 0)
(-0.0949262 0.0316947 0)
(-0.0994598 0.0281094 0)
(-0.10343 0.02416 0)
(-0.106789 0.0198926 0)
(-0.109498 0.0153556 0)
(-0.111522 0.0106001 0)
(-0.112835 0.00567986 0)
(-0.113414 0.00065172 0)
(-0.113249 -0.00442452 0)
(-0.112332 -0.00948613 0)
(-0.110667 -0.0144676 0)
(-0.108266 -0.0193012 0)
(-0.105149 -0.0239171 0)
(-0.101347 -0.0282448 0)
(-0.0968977 -0.0322133 0)
(-0.0918523 -0.0357529 0)
(-0.08627 -0.0387963 0)
(-0.0802201 -0.0412802 0)
(-0.0737813 -0.0431469 0)
(-0.0670412 -0.0443465 0)
(-0.0600953 -0.0448384 0)
(-0.0530462 -0.0445939 0)
(-0.046002 -0.0435978 0)
(-0.0390745 -0.0418504 0)
(-0.0323777 -0.0393699 0)
(-0.0260259 -0.0361938 0)
(-0.0201314 -0.0323807 0)
(-0.0148028 -0.0280115 0)
(-0.0101439 -0.0231906 0)
(-0.00624871 -0.0180469 0)
(-0.00319776 -0.0127328 0)
(-0.00110364 -0.00742342 0)
(-0.000157386 -0.00232397 0)
(-0.000200294 0.00344408 0)
(-0.00133796 0.0103316 0)
(-0.0037847 0.0170058 0)
(-0.00726362 0.0233021 0)
(-0.0116058 0.0290947 0)
(-0.0166955 0.0342852 0)
(-0.0224141 0.0388009 0)
(-0.0286435 0.0425921 0)
(-0.0352701 0.0456289 0)
(-0.0421848 0.0478982 0)
(-0.0492827 0.0494005 0)
(-0.0564634 0.0501473 0)
(-0.0636313 0.0501591 0)
(-0.0706953 0.0494631 0)
(-0.0775698 0.0480919 0)
(-0.0841739 0.0460823 0)
(-0.0904322 0.0434743 0)
(-0.0962745 0.0403105 0)
(-0.101636 0.0366359 0)
(-0.106457 0.0324978 0)
(-0.110685 0.0279456 0)
(-0.114272 0.0230312 0)
(-0.117175 0.0178093 0)
(-0.11936 0.0123374 0)
(-0.120796 0.00667595 0)
(-0.121463 0.000889046 0)
(-0.121345 -0.00495597 0)
(-0.120435 -0.0107883 0)
(-0.118734 -0.0165341 0)
(-0.116253 -0.0221165 0)
(-0.11301 -0.0274564 0)
(-0.109034 -0.0324735 0)
(-0.104365 -0.0370869 0)
(-0.0990515 -0.0412165 0)
(-0.0931536 -0.044785 0)
(-0.0867419 -0.0477189 0)
(-0.0798976 -0.049951 0)
(-0.0727114 -0.0514223 0)
(-0.0652837 -0.0520843 0)
(-0.0577228 -0.0519014 0)
(-0.050144 -0.0508528 0)
(-0.0426678 -0.0489356 0)
(-0.0354182 -0.0461661 0)
(-0.0285206 -0.042582 0)
(-0.0220997 -0.0382441 0)
(-0.0162776 -0.0332377 0)
(-0.0111723 -0.0276729 0)
(-0.0068921 -0.0216855 0)
(-0.00353129 -0.0154357 0)
(-0.00121989 -0.00910598 0)
(-0.00017411 -0.00290869 0)
(-0.000216772 0.00415003 0)
(-0.00144632 0.0122978 0)
(-0.00408766 0.0200865 0)
(-0.0078377 0.0273572 0)
(-0.01251 0.033989 0)
(-0.0179765 0.0398886 0)
(-0.0241063 0.0449882 0)
(-0.0307705 0.0492428 0)
(-0.0378459 0.0526274 0)
(-0.0452155 0.0551338 0)
(-0.0527675 0.0567673 0)
(-0.0603959 0.0575447 0)
(-0.0680003 0.0574917 0)
(-0.0754862 0.0566408 0)
(-0.0827647 0.0550301 0)
(-0.0897527 0.0527017 0)
(-0.0963727 0.049701 0)
(-0.102553 0.0460762 0)
(-0.108227 0.0418779 0)
(-0.113335 0.037159 0)
(-0.117822 0.0319746 0)
(-0.121639 0.0263825 0)
(-0.124742 0.0204435 0)
(-0.127094 0.0142214 0)
(-0.128666 0.00778336 0)
(-0.129433 0.00120049 0)
(-0.129378 -0.00545236 0)
(-0.128492 -0.0120965 0)
(-0.126774 -0.0186494 0)
(-0.124232 -0.0250252 0)
(-0.120883 -0.0311355 0)
(-0.116755 -0.0368896 0)
(-0.111884 -0.0421962 0)
(-0.106319 -0.0469645 0)
(-0.100121 -0.051106 0)
(-0.09336 -0.0545364 0)
(-0.0861191 -0.0571776 0)
(-0.0784925 -0.0589606 0)
(-0.0705845 -0.0598273 0)
(-0.0625096 -0.059734 0)
(-0.0543903 -0.0586531 0)
(-0.0463564 -0.0565765 0)
(-0.0385423 -0.0535174 0)
(-0.0310855 -0.0495125 0)
(-0.024124 -0.0446239 0)
(-0.0177943 -0.0389399 0)
(-0.0122294 -0.0325762 0)
(-0.00755305 -0.0256752 0)
(-0.00387359 -0.0184051 0)
(-0.00133904 -0.0109571 0)
(-0.000191212 -0.0035524 0)
(-0.000232932 0.00491037 0)
(-0.0015526 0.0144136 0)
(-0.00438488 0.0233978 0)
(-0.00840113 0.0317094 0)
(-0.0133979 0.0392335 0)
(-0.0192346 0.0458825 0)
(-0.0257688 0.0515948 0)
(-0.0328604 0.0563316 0)
(-0.0403769 0.060074 0)
(-0.0481933 0.0628198 0)
(-0.0561909 0.0645809 0)
(-0.0642582 0.0653801 0)
(-0.0722904 0.0652494 0)
(-0.0801894 0.0642275 0)
(-0.0878635 0.0623585 0)
(-0.0952276 0.0596904 0)
(-0.102203 0.0562747 0)
(-0.108715 0.0521652 0)
(-0.114699 0.0474184 0)
(-0.120091 0.0420926 0)
(-0.124837 0.036249 0)
(-0.128887 0.029951 0)
(-0.132195 0.0232653 0)
(-0.134725 0.0162619 0)
(-0.136443 0.00901443 0)
(-0.137323 0.00160082 0)
(-0.137348 -0.0058968 0)
(-0.136504 -0.0133919 0)
(-0.13479 -0.0207935 0)
(-0.132209 -0.0280068 0)
(-0.128776 -0.0349335 0)
(-0.124517 -0.0414727 0)
(-0.119466 -0.0475221 0)
(-0.11367 -0.0529796 0)
(-0.107189 -0.0577446 0)
(-0.100093 -0.061721 0)
(-0.0924664 -0.0648188 0)
(-0.0844061 -0.0669572 0)
(-0.0760206 -0.0680675 0)
(-0.06743 -0.0680959 0)
(-0.0587646 -0.0670064 0)
(-0.0501633 -0.064784 0)
(-0.0417719 -0.0614373 0)
(-0.0337407 -0.0570005 0)
(-0.0262219 -0.0515356 0)
(-0.0193675 -0.0451335 0)
(-0.0133267 -0.0379143 0)
(-0.0082394 -0.0300275 0)
(-0.00422921 -0.0216498 0)
(-0.00146291 -0.0129823 0)
(-0.000209023 -0.00425703 0)
(-0.000248887 0.0057242 0)
(-0.00165739 0.0166765 0)
(-0.00467777 0.0269358 0)
(-0.00895619 0.036354 0)
(-0.0142724 0.0448225 0)
(-0.0204735 0.0522606 0)
(-0.0274053 0.0586139 0)
(-0.0349169 0.0638509 0)
(-0.0428665 0.0679603 0)
(-0.0511207 0.0709477 0)
(-0.0595546 0.0728322 0)
(-0.0680509 0.0736442 0)
(-0.0765007 0.0734229 0)
(-0.0848026 0.072214 0)
(-0.0928624 0.0700683 0)
(-0.100593 0.0670407 0)
(-0.107915 0.0631887 0)
(-0.114753 0.0585724 0)
(-0.12104 0.053254 0)
(-0.126714 0.0472978 0)
(-0.131719 0.0407703 0)
(-0.136004 0.0337409 0)
(-0.139523 0.0262818 0)
(-0.142237 0.0184688 0)
(-0.144112 0.010382 0)
(-0.145121 0.00210559 0)
(-0.145242 -0.00627123 0)
(-0.144461 -0.0146543 0)
(-0.142772 -0.0229446 0)
(-0.140175 -0.0310383 0)
(-0.136684 -0.0388272 0)
(-0.132318 -0.0461999 0)
(-0.127112 -0.0530429 0)
(-0.121108 -0.0592417 0)
(-0.114364 -0.0646835 0)
(-0.106951 -0.0692588 0)
(-0.0989528 -0.0728644 0)
(-0.0904687 -0.0754066 0)
(-0.0816107 -0.0768037 0)
(-0.0725045 -0.0769904 0)
(-0.063288 -0.0759203 0)
(-0.0541099 -0.0735696 0)
(-0.0451278 -0.0699404 0)
(-0.0365054 -0.0650629 0)
(-0.0284105 -0.0589975 0)
(-0.0210115 -0.0518365 0)
(-0.0144752 -0.0437045 0)
(-0.00895889 -0.0347576 0)
(-0.0046026 -0.0251818 0)
(-0.00159326 -0.0151893 0)
(-0.000227857 -0.00502543 0)
(-0.000264729 0.00659093 0)
(-0.00176119 0.0190847 0)
(-0.00496755 0.0306974 0)
(-0.0095049 0.0412868 0)
(-0.0151361 0.0507508 0)
(-0.0216963 0.0590167 0)
(-0.0290191 0.0660382 0)
(-0.036943 0.0717927 0)
(-0.0453168 0.0762777 0)
(-0.0539992 0.0795078 0)
(-0.0628584 0.081511 0)
(-0.0717721 0.0823262 0)
(-0.0806274 0.0820011 0)
(-0.0893197 0.0805892 0)
(-0.0977529 0.0781491 0)
(-0.105839 0.0747427 0)
(-0.113496 0.0704344 0)
(-0.12065 0.0652907 0)
(-0.127233 0.0593797 0)
(-0.133184 0.0527716 0)
(-0.138444 0.0455385 0)
(-0.142964 0.0377551 0)
(-0.146698 0.029499 0)
(-0.149604 0.0208518 0)
(-0.151648 0.0118989 0)
(-0.152799 0.00273083 0)
(-0.153035 -0.00655665 0)
(-0.152337 -0.0158623 0)
(-0.150696 -0.025079 0)
(-0.148111 -0.0340943 0)
(-0.144588 -0.0427903 0)
(-0.140144 -0.051045 0)
(-0.13481 -0.058733 0)
(-0.128624 -0.0657273 0)
(-0.121643 -0.0719016 0)
(-0.113935 -0.077132 0)
(-0.105584 -0.0813009 0)
(-0.0966899 -0.0842996 0)
(-0.0873678 -0.0860321 0)
(-0.0777488 -0.086419 0)
(-0.0679784 -0.0854014 0)
(-0.0582152 -0.0829447 0)
(-0.0486289 -0.0790422 0)
(-0.039398 -0.0737182 0)
(-0.0307063 -0.06703 0)
(-0.0227403 -0.0590703 0)
(-0.0156858 -0.0499672 0)
(-0.00971903 -0.0398838 0)
(-0.00499807 -0.0290159 0)
(-0.00173178 -0.0175881 0)
(-0.000248014 -0.00586136 0)
(-0.000280535 0.00751019 0)
(-0.00186442 0.0216368 0)
(-0.00525529 0.0346804 0)
(-0.010049 0.0465043 0)
(-0.0159915 0.0570138 0)
(-0.0229055 0.0661449 0)
(-0.0306128 0.0738606 0)
(-0.0389409 0.0801485 0)
(-0.0477291 0.0850164 0)
(-0.0568282 0.0884891 0)
(-0.0661001 0.0906051 0)
(-0.0754174 0.0914132 0)
(-0.0846632 0.0909704 0)
(-0.0937305 0.0893394 0)
(-0.102522 0.0865872 0)
(-0.110947 0.0827835 0)
(-0.118925 0.0780001 0)
(-0.126383 0.07231 0)
(-0.133251 0.0657877 0)
(-0.139469 0.0585089 0)
(-0.14498 0.0505513 0)
(-0.149734 0.0419947 0)
(-0.153683 0.0329218 0)
(-0.156787 0.0234191 0)
(-0.159009 0.0135774 0)
(-0.160317 0.00349269 0)
(-0.160685 -0.00673332 0)
(-0.160092 -0.0169926 0)
(-0.158525 -0.0271708 0)
(-0.155979 -0.0371468 0)
(-0.152454 -0.0467934 0)
(-0.147965 -0.0559778 0)
(-0.142536 -0.0645626 0)
(-0.136201 -0.0724079 0)
(-0.129013 -0.0793727 0)
(-0.121038 -0.0853181 0)
(-0.112357 -0.09011 0)
(-0.103071 -0.0936233 0)
(-0.0932982 -0.0957451 0)
(-0.0831733 -0.0963802 0)
(-0.0728493 -0.0954543 0)
(-0.0624947 -0.0929196 0)
(-0.0522919 -0.0887582 0)
(-0.0424347 -0.082986 0)
(-0.0331244 -0.0756557 0)
(-0.0245669 -0.0668588 0)
(-0.0169688 -0.0567261 0)
(-0.0105271 -0.0454276 0)
(-0.00541983 -0.0331696 0)
(-0.00188012 -0.0201907 0)
(-0.000269785 -0.00676941 0)
(-0.00029637 0.00848182 0)
(-0.00196748 0.0243322 0)
(-0.00554194 0.0388831 0)
(-0.0105901 0.0520037 0)
(-0.0168407 0.0636073 0)
(-0.0241035 0.0736393 0)
(-0.0321884 0.0820735 0)
(-0.0409118 0.0889088 0)
(-0.0501035 0.094165 0)
(-0.0596062 0.0978787 0)
(-0.0692756 0.1001 0)
(-0.0789796 0.100889 0)
(-0.0885977 0.100314 0)
(-0.0980209 0.0984474 0)
(-0.10715 0.0953654 0)
(-0.115896 0.0911465 0)
(-0.124177 0.0858702 0)
(-0.13192 0.0796164 0)
(-0.139058 0.0724662 0)
(-0.145531 0.0645008 0)
(-0.151283 0.0558032 0)
(-0.156264 0.046458 0)
(-0.160427 0.0365524 0)
(-0.163732 0.0261776 0)
(-0.166139 0.0154288 0)
(-0.167616 0.00440686 0)
(-0.168134 -0.00678112 0)
(-0.167669 -0.0180212 0)
(-0.166204 -0.0291921 0)
(-0.163727 -0.040165 0)
(-0.160236 -0.0508033 0)
(-0.155737 -0.0609637 0)
(-0.15025 -0.070497 0)
(-0.143804 -0.0792495 0)
(-0.136446 -0.0870651 0)
(-0.128237 -0.0937883 0)
(-0.119257 -0.0992675 0)
(-0.109605 -0.103359 0)
(-0.0994005 -0.10593 0)
(-0.0887818 -0.106868 0)
(-0.0779088 -0.106081 0)
(-0.0669598 -0.103503 0)
(-0.0561303 -0.0991029 0)
(-0.0456298 -0.0928863 0)
(-0.0356786 -0.0848984 0)
(-0.0265036 -0.075228 0)
(-0.0183341 -0.0640075 0)
(-0.0113901 -0.0514135 0)
(-0.00587196 -0.0376635 0)
(-0.00203991 -0.0230111 0)
(-0.000293458 -0.00775506 0)
(-0.000312297 0.00950584 0)
(-0.00207073 0.0271703 0)
(-0.00582848 0.0433042 0)
(-0.0111298 0.0577827 0)
(-0.0176856 0.0705273 0)
(-0.0252926 0.0814941 0)
(-0.0337479 0.0906688 0)
(-0.0428568 0.0980633 0)
(-0.0524392 0.103711 0)
(-0.0623302 0.107661 0)
(-0.0723791 0.109978 0)
(-0.0824492 0.110735 0)
(-0.0924173 0.110011 0)
(-0.102172 0.107892 0)
(-0.111615 0.104462 0)
(-0.120656 0.0998101 0)
(-0.129215 0.094024 0)
(-0.137221 0.0871912 0)
(-0.144608 0.0793987 0)
(-0.151318 0.0707338 0)
(-0.157296 0.0612843 0)
(-0.162494 0.0511392 0)
(-0.166866 0.0403899 0)
(-0.170371 0.0291312 0)
(-0.172969 0.0174623 0)
(-0.174627 0.00548805 0)
(-0.175311 -0.00668005 0)
(-0.174997 -0.0189229 0)
(-0.17366 -0.0311132 0)
(-0.171286 -0.0431148 0)
(-0.167865 -0.0547827 0)
(-0.163398 -0.0659634 0)
(-0.157897 -0.0764956 0)
(-0.151384 -0.0862116 0)
(-0.143899 -0.0949398 0)
(-0.135499 -0.102507 0)
(-0.126258 -0.108742 0)
(-0.116274 -0.11348 0)
(-0.105664 -0.116569 0)
(-0.0945703 -0.117872 0)
(-0.083159 -0.117277 0)
(-0.0716173 -0.114699 0)
(-0.060154 -0.110089 0)
(-0.0489952 -0.103438 0)
(-0.0383813 -0.0947827 0)
(-0.0285618 -0.0842056 0)
(-0.019791 -0.0718402 0)
(-0.0123148 -0.0578689 0)
(-0.00635845 -0.0425206 0)
(-0.00221273 -0.0260656 0)
(-0.000319322 -0.00882458 0)
(-0.000328383 0.0105825 0)
(-0.0021746 0.0301515 0)
(-0.00611594 0.0479434 0)
(-0.0116698 0.0638394 0)
(-0.0185285 0.0777702 0)
(-0.0264749 0.0897032 0)
(-0.0352931 0.0996377 0)
(-0.0447764 0.1076 0)
(-0.0547351 0.113638 0)
(-0.0649961 0.117818 0)
(-0.0754028 0.120219 0)
(-0.0858144 0.120927 0)
(-0.0961049 0.120037 0)
(-0.106163 0.117645 0)
(-0.115888 0.113849 0)
(-0.125193 0.108747 0)
(-0.134 0.102435 0)
(-0.142239 0.0950092 0)
(-0.149847 0.0865629 0)
(-0.156769 0.0771888 0)
(-0.162953 0.0669796 0)
(-0.168352 0.056028 0)
(-0.172922 0.0444291 0)
(-0.176622 0.0322806 0)
(-0.179412 0.0196846 0)
(-0.181258 0.0067492 0)
(-0.182125 -0.0064108 0)
(-0.181982 -0.0196722 0)
(-0.180804 -0.0329027 0)
(-0.178568 -0.0459597 0)
(-0.175258 -0.0586906 0)
(-0.170868 -0.0709322 0)
(-0.165402 -0.0825113 0)
(-0.158873 -0.0932466 0)
(-0.151314 -0.10295 0)
(-0.142774 -0.111429 0)
(-0.13332 -0.118493 0)
(-0.123045 -0.123954 0)
(-0.112066 -0.127634 0)
(-0.100526 -0.129374 0)
(-0.0885943 -0.129034 0)
(-0.0764681 -0.126508 0)
(-0.0643687 -0.121726 0)
(-0.0525397 -0.11466 0)
(-0.0412424 -0.105333 0)
(-0.0307514 -0.0938207 0)
(-0.0213483 -0.0802552 0)
(-0.0133078 -0.0648236 0)
(-0.00688322 -0.0477665 0)
(-0.00240018 -0.029372 0)
(-0.00034767 -0.00998509 0)
(-0.000344709 0.0117122 0)
(-0.00227956 0.0332764 0)
(-0.00640559 0.0528009 0)
(-0.0122122 0.0701727 0)
(-0.019372 0.0853326 0)
(-0.0276533 0.0982604 0)
(-0.0368261 0.10897 0)
(-0.0466716 0.117505 0)
(-0.0569896 0.12393 0)
(-0.0675992 0.128329 0)
(-0.078338 0.130796 0)
(-0.0890611 0.131437 0)
(-0.0996409 0.130359 0)
(-0.109965 0.127674 0)
(-0.119935 0.123492 0)
(-0.129466 0.117922 0)
(-0.138481 0.111069 0)
(-0.146916 0.103038 0)
(-0.15471 0.093929 0)
(-0.161812 0.0838398 0)
(-0.168174 0.0728672 0)
(-0.173751 0.0611079 0)
(-0.178501 0.0486594 0)
(-0.182386 0.0356216 0)
(-0.185365 0.0220988 0)
(-0.187404 0.00820066 0)
(-0.188465 -0.00595551 0)
(-0.188516 -0.0202437 0)
(-0.187525 -0.0345279 0)
(-0.185463 -0.0486604 0)
(-0.182309 -0.0624816 0)
(-0.178047 -0.0758197 0)
(-0.172671 -0.0884905 0)
(-0.166186 -0.100299 0)
(-0.158614 -0.111039 0)
(-0.149993 -0.120501 0)
(-0.140385 -0.128471 0)
(-0.129874 -0.134734 0)
(-0.118573 -0.139089 0)
(-0.106624 -0.141345 0)
(-0.0942006 -0.141335 0)
(-0.0815062 -0.138925 0)
(-0.068775 -0.134018 0)
(-0.0562684 -0.126565 0)
(-0.04427 -0.116572 0)
(-0.0330812 -0.104103 0)
(-0.023014 -0.0892847 0)
(-0.0143751 -0.0723097 0)
(-0.00745014 -0.0534293 0)
(-0.00260389 -0.0329504 0)
(-0.000378808 -0.0112446 0)
(-0.00036138 0.0128956 0)
(-0.00238626 0.0365464 0)
(-0.00669901 0.0578776 0)
(-0.0127596 0.0767823 0)
(-0.0202197 0.0932115 0)