/*--------------------------------*- C++ -*----------------------------------*\
| =========                 |                                                 |
| \\      /  F ield         | OpenFOAM: The Open Source CFD Toolbox           |
|  \\    /   O peration     | Version:  2312                                  |
|   \\  /    A nd           | Website:  www.openfoam.com                      |
|    \\/     M anipulation  |                                                 |
\*---------------------------------------------------------------------------*/
FoamFile
{
    version     2.0;
    format      ascii;
    arch        "LSB;label=32;scalar=64";
    class       volVectorField;
    location    "50";
    object      U;
}
// * * * * * * * * * * * * * * * * * * * * * * * * * * * * * * * * * * * * * //

dimensions      [0 1 -1 0 0 0 0];

internalField   nonuniform List<vector> 
2500
(
(3.31076e-05 -3.30425e-05 0)
(9.86486e-05 -3.99751e-05 0)
(0.000133609 -1.94994e-05 0)
(9.68231e-05 9.82428e-06 0)
(-2.45128e-05 3.96637e-05 0)
(-0.000227915 6.68545e-05 0)
(-0.000505172 9.02098e-05 0)
(-0.000845895 0.000109437 0)
(-0.00123884 0.000124621 0)
(-0.00167269 0.000135991 0)
(-0.00213647 0.000143821 0)
(-0.00261971 0.000148396 0)
(-0.00311261 0.000149986 0)
(-0.00360598 0.000148845 0)
(-0.00409132 0.000145205 0)
(-0.00456075 0.000139278 0)
(-0.00500702 0.00013126 0)
(-0.00542345 0.000121331 0)
(-0.00580396 0.000109661 0)
(-0.00614303 9.64159e-05 0)
(-0.00643571 8.1762e-05 0)
(-0.00667763 6.58693e-05 0)
(-0.00686505 4.89175e-05 0)
(-0.00699485 3.10996e-05 0)
(-0.00706464 1.26257e-05 0)
(-0.00707275 -6.27438e-06 0)
(-0.00701835 -2.53495e-05 0)
(-0.00690146 -4.43269e-05 0)
(-0.00672305 -6.29132e-05 0)
(-0.00648504 -8.07962e-05 0)
(-0.00619044 -9.76486e-05 0)
(-0.00584326 -0.000113132 0)
(-0.00544863 -0.000126902 0)
(-0.00501273 -0.000138618 0)
(-0.00454282 -0.000147944 0)
(-0.00404711 -0.000154565 0)
(-0.00353475 -0.000158187 0)
(-0.00301571 -0.000158548 0)
(-0.00250062 -0.000155424 0)
(-0.00200066 -0.000148638 0)
(-0.00152733 -0.000138058 0)
(-0.00109224 -0.000123615 0)
(-0.000706837 -0.000105312 0)
(-0.000382052 -8.32584e-05 0)
(-0.000127728 -5.77701e-05 0)
(4.81633e-05 -2.95956e-05 0)
(0.00014099 -3.30444e-07 0)
(0.000152502 2.64555e-05 0)
(0.000100718 4.26832e-05 0)
(3.13818e-05 3.13254e-05 0)
(4.05053e-05 -9.88692e-05 0)
(8.89718e-05 -8.78658e-05 0)
(3.04417e-05 2.35909e-05 0)
(-0.000197756 0.00017322 0)
(-0.000620164 0.000329941 0)
(-0.00123586 0.000478044 0)
(-0.00203068 0.000609636 0)
(-0.00298314 0.000721162 0)
(-0.00406784 0.000811381 0)
(-0.00525774 0.000880279 0)
(-0.00652552 0.0009285 0)
(-0.0078444 0.000957034 0)
(-0.00918861 0.000967037 0)
(-0.0105337 0.00095973 0)
(-0.0118568 0.000936342 0)
(-0.0131363 0.000898079 0)
(-0.0143523 0.000846115 0)
(-0.0154867 0.000781595 0)
(-0.0165225 0.000705648 0)
(-0.0174445 0.000619401 0)
(-0.0182394 0.000524001 0)
(-0.018895 0.00042064 0)
(-0.0194014 0.000310569 0)
(-0.0197503 0.000195122 0)
(-0.0199352 7.57332e-05 0)
(-0.0199521 -4.60566e-05 0)
(-0.0197989 -0.000168589 0)
(-0.0194762 -0.000290092 0)
(-0.0189869 -0.000408684 0)
(-0.0183367 -0.000522392 0)
(-0.0175339 -0.000629174 0)
(-0.0165897 -0.000726942 0)
(-0.0155182 -0.000813605 0)
(-0.0143362 -0.000887104 0)
(-0.0130632 -0.000945462 0)
(-0.0117212 -0.000986834 0)
(-0.0103345 -0.00100956 0)
(-0.00892949 -0.0010122 0)
(-0.00753398 -0.000993642 0)
(-0.00617698 -0.000953092 0)
(-0.00488799 -0.000890195 0)
(-0.00369632 -0.000805112 0)
(-0.00263019 -0.00069867 0)
(-0.00171557 -0.000572618 0)
(-0.000974598 -0.000430115 0)
(-0.000423291 -0.000276689 0)
(-6.82268e-05 -0.000121923 0)
(9.85479e-05 1.72404e-05 0)
(0.000111445 0.000110407 0)
(4.29655e-05 0.000100636 0)
(2.10123e-05 -0.000135608 0)
(-1.97378e-05 -3.04267e-05 0)
(-0.000260404 0.00026443 0)
(-0.00075355 0.000639257 0)
(-0.00152183 0.00103341 0)
(-0.00256396 0.00141101 0)
(-0.00386176 0.00175145 0)
(-0.00538645 0.00204374 0)
(-0.00710301 0.00228273 0)
(-0.00897313 0.00246672 0)
(-0.0109572 0.00259617 0)
(-0.0130158 0.00267278 0)
(-0.0151105 0.00269897 0)
(-0.0172041 0.00267758 0)
(-0.0192617 0.00261164 0)
(-0.0212504 0.00250427 0)
(-0.0231394 0.00235859 0)
(-0.0249003 0.00217775 0)
(-0.0265072 0.0019649 0)
(-0.0279366 0.00172325 0)
(-0.0291674 0.00145608 0)
(-0.0301814 0.00116682 0)
(-0.030963 0.000859067 0)
(-0.0314996 0.000536642 0)
(-0.0317816 0.000203629 0)
(-0.031803 -0.000135609 0)
(-0.0315609 -0.000476414 0)
(-0.0310565 -0.000813843 0)
(-0.0302947 -0.00114269 0)
(-0.0292845 -0.00145752 0)
(-0.0280391 -0.00175274 0)
(-0.0265758 -0.0020227 0)
(-0.0249164 -0.00226174 0)
(-0.0230868 -0.00246434 0)
(-0.0211166 -0.00262524 0)
(-0.0190395 -0.00273959 0)
(-0.0168923 -0.00280306 0)
(-0.0147147 -0.00281204 0)
(-0.0125486 -0.0027638 0)
(-0.010437 -0.00265667 0)
(-0.00842377 -0.00249024 0)
(-0.00655175 -0.00226571 0)
(-0.00486175 -0.0019863 0)
(-0.00339064 -0.0016579 0)
(-0.0021691 -0.00129022 0)
(-0.00121862 -0.000898675 0)
(-0.000547516 -0.000507616 0)
(-0.000145589 -0.000155159 0)
(2.33378e-05 9.9032e-05 0)
(2.79884e-05 0.000153888 0)
(-7.24288e-06 -0.00010241 0)
(-0.000167995 0.000195613 0)
(-0.000636969 0.000757468 0)
(-0.00143835 0.00143563 0)
(-0.00258275 0.00214175 0)
(-0.00406427 0.00281934 0)
(-0.00585949 0.00343336 0)
(-0.00793312 0.00396347 0)
(-0.0102425 0.00439893 0)
(-0.0127405 0.00473519 0)
(-0.0153782 0.00497175 0)
(-0.0181059 0.00511065 0)
(-0.020875 0.00515559 0)
(-0.0236382 0.00511123 0)
(-0.0263505 0.00498279 0)
(-0.0289694 0.00477584 0)
(-0.0314549 0.00449613 0)
(-0.0337702 0.00414952 0)
(-0.0358815 0.00374199 0)
(-0.0377581 0.00327968 0)
(-0.0393727 0.00276892 0)
(-0.0407015 0.00221633 0)
(-0.0417243 0.00162886 0)
(-0.042425 0.0010139 0)
(-0.0427913 0.000379301 0)
(-0.0428154 -0.000266572 0)
(-0.0424942 -0.000914837 0)
(-0.0418293 -0.00155611 0)
(-0.0408274 -0.00218054 0)
(-0.0395005 -0.00277791 0)
(-0.0378658 -0.00333775 0)
(-0.035946 -0.00384949 0)
(-0.0337694 -0.00430262 0)
(-0.0313694 -0.00468694 0)
(-0.0287844 -0.00499278 0)
(-0.0260574 -0.00521125 0)
(-0.0232358 -0.00533456 0)
(-0.02037 -0.0053563 0)
(-0.0175134 -0.00527179 0)
(-0.0147207 -0.00507842 0)
(-0.0120468 -0.00477613 0)
(-0.00954552 -0.00436793 0)
(-0.00726766 -0.00386069 0)
(-0.00525877 -0.00326626 0)
(-0.00355667 -0.00260316 0)
(-0.00218831 -0.00189924 0)
(-0.00116573 -0.00119584 0)
(-0.000481291 -0.000553277 0)
(-0.000107133 -5.93084e-05 0)
(3.50558e-06 0.00014791 0)
(-3.67153e-05 1.5027e-05 0)
(-0.000328208 0.000619751 0)
(-0.0010471 0.00153403 0)
(-0.0021794 0.00258525 0)
(-0.00371718 0.00366323 0)
(-0.00564602 0.00469352 0)
(-0.00793517 0.00562745 0)
(-0.0105423 0.00643507 0)
(-0.0134174 0.00709941 0)
(-0.0165062 0.00761237 0)
(-0.0197517 0.00797196 0)
(-0.023096 0.00818022 0)
(-0.0264821 0.00824196 0)
(-0.0298545 0.00816369 0)
(-0.0331597 0.00795308 0)
(-0.0363471 0.00761848 0)
(-0.0393694 0.00716871 0)
(-0.0421823 0.00661291 0)
(-0.0447455 0.0059605 0)
(-0.0470222 0.00522124 0)
(-0.0489797 0.00440524 0)
(-0.0505897 0.00352313 0)
(-0.051828 0.00258605 0)
(-0.0526754 0.00160584 0)
(-0.0531174 0.000595055 0)
(-0.053145 -0.000432986 0)
(-0.0527544 -0.00146417 0)
(-0.0519479 -0.00248363 0)
(-0.0507336 -0.00347585 0)
(-0.0491259 -0.00442476 0)
(-0.0471457 -0.00531395 0)
(-0.0448201 -0.00612688 0)
(-0.0421826 -0.00684721 0)
(-0.039273 -0.0074591 0)
(-0.0361369 -0.0079476 0)
(-0.0328253 -0.00829908 0)
(-0.029394 -0.00850164 0)
(-0.0259027 -0.00854567 0)
(-0.0224141 -0.0084243 0)
(-0.0189924 -0.00813404 0)
(-0.015702 -0.00767546 0)
(-0.0126058 -0.00705398 0)
(-0.0097632 -0.00628103 0)
(-0.00722743 -0.00537545 0)
(-0.00504339 -0.00436564 0)
(-0.00324453 -0.00329266 0)
(-0.00184905 -0.00221468 0)
(-0.000855949 -0.00121245 0)
(-0.000252187 -0.000397223 0)
(-2.29078e-05 6.63595e-05 0)
(-6.47961e-05 0.000217463 0)
(-0.000487726 0.00125029 0)
(-0.00146275 0.00260755 0)
(-0.00293436 0.00410223 0)
(-0.00487245 0.0056086 0)
(-0.00725111 0.00703804 0)
(-0.0100302 0.00833021 0)
(-0.0131591 0.00944641 0)
(-0.0165807 0.0103636 0)
(-0.0202334 0.0110701 0)
(-0.0240532 0.0115622 0)
(-0.0279753 0.0118417 0)
(-0.0319354 0.0119146 0)
(-0.0358711 0.0117892 0)
(-0.039722 0.0114759 0)
(-0.0434308 0.010986 0)
(-0.0469436 0.0103317 0)
(-0.0502104 0.00952601 0)
(-0.053185 0.00858221 0)
(-0.0558257 0.00751427 0)
(-0.0580953 0.00633675 0)
(-0.0599613 0.0050649 0)
(-0.0613964 0.00371482 0)
(-0.0623787 0.00230353 0)
(-0.0628918 0.000849063 0)
(-0.0629255 -0.000629456 0)
(-0.0624755 -0.00211184 0)
(-0.0615445 -0.0035769 0)
(-0.0601417 -0.00500253 0)
(-0.0582836 -0.00636591 0)
(-0.0559937 -0.00764382 0)
(-0.0533029 -0.00881288 0)
(-0.0502492 -0.00985006 0)
(-0.0468774 -0.0107331 0)
(-0.0432391 -0.011441 0)
(-0.039392 -0.0119547 0)
(-0.0353991 -0.0122577 0)
(-0.0313277 -0.0123369 0)
(-0.0272485 -0.0121829 0)
(-0.0232339 -0.0117913 0)
(-0.0193566 -0.0111634 0)
(-0.0156877 -0.0103074 0)
(-0.0122945 -0.00923968 0)
(-0.00923795 -0.00798653 0)
(-0.00657063 -0.00658649 0)
(-0.00433388 -0.00509357 0)
(-0.00255435 -0.00358153 0)
(-0.00124068 -0.00214883 0)
(-0.000398399 -0.000925266 0)
(-4.82979e-05 -9.27027e-05 0)
(-9.07472e-05 0.000501503 0)
(-0.000641184 0.00208583 0)
(-0.00186986 0.00397968 0)
(-0.00368005 0.00598955 0)
(-0.00601802 0.00797978 0)
(-0.00884444 0.00985154 0)
(-0.0121081 0.0115354 0)
(-0.0157491 0.0129855 0)
(-0.0197022 0.0141736 0)
(-0.0238989 0.0150847 0)
(-0.0282683 0.0157136 0)
(-0.0327393 0.0160622 0)
(-0.0372414 0.0161375 0)
(-0.0417061 0.0159499 0)
(-0.0460671 0.0155124 0)
(-0.0502615 0.0148398 0)
(-0.0542301 0.013948 0)
(-0.0579176 0.012854 0)
(-0.0612733 0.0115756 0)
(-0.0642511 0.0101313 0)
(-0.0668101 0.00854072 0)
(-0.0689143 0.00682424 0)
(-0.0705336 0.00500349 0)
(-0.0716438 0.00310131 0)
(-0.0722268 0.0011419 0)
(-0.072271 -0.000849178 0)
(-0.071772 -0.00284496 0)
(-0.0707324 -0.00481718 0)
(-0.0691622 -0.00673643 0)
(-0.0670794 -0.00857241 0)
(-0.0645096 -0.0102943 0)
(-0.0614866 -0.0118711 0)
(-0.0580519 -0.0132725 0)
(-0.0542547 -0.0144688 0)
(-0.0501514 -0.0154327 0)
(-0.0458054 -0.0161388 0)
(-0.0412856 -0.0165658 0)
(-0.0366661 -0.0166961 0)
(-0.0320246 -0.016518 0)
(-0.0274409 -0.0160258 0)
(-0.0229956 -0.0152215 0)
(-0.0187673 -0.014116 0)
(-0.0148313 -0.0127307 0)
(-0.0112569 -0.0110992 0)
(-0.00810511 -0.00926978 0)
(-0.0054267 -0.00730859 0)
(-0.00325861 -0.00530328 0)
(-0.00162117 -0.00336715 0)
(-0.000540123 -0.00164419 0)
(-7.1825e-05 -0.000326779 0)
(-0.000114593 0.000862694 0)
(-0.000786925 0.0031205 0)
(-0.0022625 0.00564564 0)
(-0.00440537 0.00824343 0)
(-0.00713811 0.0107729 0)
(-0.0104069 0.0131287 0)
(-0.0141484 0.0152351 0)
(-0.0182923 0.0170408 0)
(-0.0227649 0.0185138 0)
(-0.0274901 0.0196365 0)
(-0.0323905 0.020403 0)
(-0.0373889 0.0208153 0)
(-0.0424092 0.0208818 0)
(-0.0473772 0.0206152 0)
(-0.0522218 0.0200316 0)
(-0.0568752 0.0191493 0)
(-0.0612735 0.0179881 0)
(-0.0653573 0.0165695 0)
(-0.0690719 0.014916 0)
(-0.0723676 0.0130513 0)
(-0.0752001 0.0110001 0)
(-0.0775307 0.0087887 0)
(-0.0793267 0.00644456 0)
(-0.0805619 0.00399687 0)
(-0.0812164 0.00147648 0)
(-0.0812778 -0.00108405 0)
(-0.0807407 -0.0036504 0)
(-0.0796077 -0.00618667 0)
(-0.0778891 -0.00865553 0)
(-0.0756039 -0.0110186 0)
(-0.0727794 -0.0132367 0)
(-0.0694512 -0.0152708 0)
(-0.0656638 -0.0170822 0)
(-0.0614698 -0.0186339 0)
(-0.0569298 -0.0198907 0)
(-0.0521115 -0.020821 0)
(-0.0470896 -0.0213975 0)
(-0.0419439 -0.0215984 0)
(-0.0367587 -0.0214085 0)
(-0.0316208 -0.0208208 0)
(-0.0266179 -0.0198375 0)
(-0.021837 -0.0184721 0)
(-0.0173614 -0.0167504 0)
(-0.0132695 -0.0147129 0)
(-0.00963175 -0.0124171 0)
(-0.0065097 -0.00993986 0)
(-0.003952 -0.00738103 0)
(-0.00199192 -0.00486622 0)
(-0.000675639 -0.00255027 0)
(-9.34089e-05 -0.000632041 0)
(-0.000136621 0.00129655 0)
(-0.000925029 0.00434669 0)
(-0.00263912 0.00759758 0)
(-0.00510629 0.0108567 0)
(-0.0082261 0.0139812 0)
(-0.0119299 0.0168625 0)
(-0.0161414 0.019421 0)
(-0.0207794 0.0216022 0)
(-0.025761 0.0233717 0)
(-0.0310023 0.0247106 0)
(-0.0364193 0.0256128 0)
(-0.0419287 0.0260813 0)
(-0.0474491 0.0261261 0)
(-0.0529014 0.0257629 0)
(-0.0582098 0.0250107 0)
(-0.0633025 0.0238919 0)
(-0.0681116 0.0224305 0)
(-0.0725741 0.0206528 0)
(-0.0766319 0.0185862 0)
(-0.0802323 0.0162598 0)
(-0.0833281 0.013704 0)
(-0.0858781 0.0109511 0)
(-0.0878476 0.00803489 0)
(-0.0892083 0.00499124 0)
(-0.0899388 0.00185803 0)
(-0.0900255 -0.00132474 0)
(-0.0894621 -0.004515 0)
(-0.0882506 -0.00766872 0)
(-0.0864015 -0.0107402 0)
(-0.0839341 -0.0136822 0)
(-0.0808766 -0.0164471 0)
(-0.0772661 -0.0189869 0)
(-0.0731492 -0.0212541 0)
(-0.0685811 -0.0232032 0)
(-0.0636258 -0.0247913 0)
(-0.0583552 -0.0259794 0)
(-0.0528485 -0.0267339 0)
(-0.0471911 -0.0270276 0)
(-0.0414733 -0.0268417 0)
(-0.0357889 -0.0261671 0)
(-0.0302332 -0.0250057 0)
(-0.0249012 -0.0233729 0)
(-0.0198855 -0.0212984 0)
(-0.0152739 -0.018829 0)
(-0.0111477 -0.01603 0)
(-0.00758025 -0.0129881 0)
(-0.00463288 -0.00981365 0)
(-0.00235248 -0.00664262 0)
(-0.000805347 -0.00363855 0)
(-0.000113361 -0.00100481 0)
(-0.000157174 0.00179905 0)
(-0.0010563 0.00575663 0)
(-0.0030004 0.00982659 0)
(-0.00578271 0.0138205 0)
(-0.00928077 0.0175964 0)
(-0.0134111 0.0210447 0)
(-0.0180844 0.0240847 0)
(-0.0232078 0.0266605 0)
(-0.028689 0.0287369 0)
(-0.034436 0.0302951 0)
(-0.0403579 0.0313296 0)
(-0.0463655 0.0318453 0)
(-0.0523721 0.0318547 0)
(-0.0582942 0.0313762 0)
(-0.0640518 0.030433 0)
(-0.0695692 0.0290513 0)
(-0.0747754 0.02726 0)
(-0.0796041 0.0250901 0)
(-0.0839944 0.0225745 0)
(-0.087891 0.0197477 0)
(-0.0912443 0.0166463 0)
(-0.094011 0.0133085 0)
(-0.0961541 0.00977492 0)
(-0.0976438 0.00608832 0)
(-0.0984571 0.00229389 0)
(-0.0985788 -0.00156067 0)
(-0.0980018 -0.00542516 0)
(-0.0967272 -0.00924711 0)
(-0.0947649 -0.012972 0)
(-0.0921341 -0.0165436 0)
(-0.0888634 -0.0199048 0)
(-0.0849908 -0.0229983 0)
(-0.0805641 -0.0257674 0)
(-0.0756407 -0.0281575 0)
(-0.0702871 -0.0301169 0)
(-0.0645789 -0.0315987 0)
(-0.0585994 -0.0325621 0)
(-0.0524393 -0.032974 0)
(-0.0461948 -0.0328111 0)
(-0.0399667 -0.0320613 0)
(-0.0338582 -0.0307255 0)
(-0.0279729 -0.0288201 0)
(-0.0224131 -0.0263779 0)
(-0.0172772 -0.0234508 0)
(-0.0126583 -0.0201113 0)
(-0.00864236 -0.0164545 0)
(-0.00530442 -0.0126001 0)
(-0.00270526 -0.00869306 0)
(-0.000930662 -0.00490456 0)
(-0.000132118 -0.00144207 0)
(-0.000176573 0.0023668 0)
(-0.0011818 0.00734313 0)
(-0.00334804 0.0123239 0)
(-0.00643658 0.0171258 0)
(-0.010304 0.0216095 0)
(-0.0148522 0.0256668 0)
(-0.0199787 0.0292177 0)
(-0.0255792 0.0322069 0)
(-0.0315512 0.0346 0)
(-0.0377947 0.0363797 0)
(-0.0442117 0.0375425 0)
(-0.050707 0.0380957 0)
(-0.0571889 0.038055 0)
(-0.0635694 0.0374427 0)
(-0.0697648 0.036286 0)
(-0.0756962 0.0346157 0)
(-0.0812894 0.0324656 0)
(-0.0864756 0.029872 0)
(-0.0911915 0.0268733 0)
(-0.0953793 0.0235099 0)
(-0.0989876 0.0198242 0)
(-0.101971 0.0158612 0)
(-0.104291 0.011668 0)
(-0.105915 0.00729442 0)
(-0.10682 0.00279328 0)
(-0.106989 -0.00177987 0)
(-0.106412 -0.00636654 0)
(-0.10509 -0.0109055 0)
(-0.103032 -0.0153331 0)
(-0.100256 -0.0195837 0)
(-0.0967912 -0.0235905 0)
(-0.0926751 -0.0272862 0)
(-0.0879565 -0.0306044 0)
(-0.082694 -0.0334804 0)
(-0.0769564 -0.0358534 0)
(-0.0708222 -0.0376675 0)
(-0.0643786 -0.0388738 0)
(-0.0577212 -0.0394325 0)
(-0.0509523 -0.0393146 0)
(-0.0441796 -0.0385041 0)
(-0.0375146 -0.037 0)
(-0.0310704 -0.0348183 0)
(-0.0249595 -0.0319943 0)
(-0.019292 -0.0285839 0)
(-0.0141737 -0.0246655 0)
(-0.00970417 -0.0203418 0)
(-0.00597264 -0.0157408 0)
(-0.00305415 -0.0110159 0)
(-0.00105345 -0.00634544 0)
(-0.000150135 -0.00194179 0)
(-0.000195095 0.00299702 0)
(-0.00130261 0.00909997 0)
(-0.00368414 0.0150815 0)
(-0.00707075 0.0207639 0)
(-0.011299 0.0260119 0)
(-0.0162567 0.0307203 0)
(-0.0218282 0.0348116 0)
(-0.0278974 0.038233 0)
(-0.0343521 0.0409525 0)
(-0.0410835 0.0429556 0)
(-0.0479867 0.044242 0)
(-0.0549606 0.0448226 0)
(-0.0619084 0.0447172 0)
(-0.068738 0.0439524 0)
(-0.0753622 0.04256 0)
(-0.081699 0.0405761 0)
(-0.0876716 0.0380396 0)
(-0.0932091 0.0349923 0)
(-0.0982459 0.0314784 0)
(-0.102723 0.0275441 0)
(-0.106586 0.0232382 0)
(-0.109788 0.018612 0)
(-0.11229 0.0137196 0)
(-0.114057 0.00861786 0)
(-0.115064 0.00336713 0)
(-0.115291 -0.00196904 0)
(-0.11473 -0.00732375 0)
(-0.113378 -0.0126269 0)
(-0.111242 -0.0178054 0)
(-0.10834 -0.0227841 0)
(-0.1047 -0.0274858 0)
(-0.100359 -0.031833 0)
(-0.095366 -0.0357486 0)
(-0.0897799 -0.0391577 0)
(-0.0836713 -0.041989 0)
(-0.077121 -0.0441768 0)
(-0.0702201 -0.0456634 0)
(-0.0630688 -0.0464007 0)
(-0.0557753 -0.046353 0)
(-0.0484547 -0.0454993 0)
(-0.0412271 -0.0438351 0)
(-0.0342155 -0.0413755 0)
(-0.0275438 -0.0381564 0)
(-0.0213347 -0.0342367 0)
(-0.0157074 -0.0297 0)
(-0.0107762 -0.0246555 0)
(-0.00664511 -0.019239 0)
(-0.0034038 -0.0136119 0)
(-0.00117577 -0.00796045 0)
(-0.000167853 -0.00250305 0)
(-0.00021297 0.00368756 0)
(-0.00141973 0.0110219 0)
(-0.00401078 0.0180923 0)
(-0.00768835 0.0247269 0)
(-0.0122697 0.0307954 0)
(-0.017629 0.036197 0)
(-0.0236375 0.0408584 0)
(-0.0301675 0.0447307 0)
(-0.0370967 0.0477861 0)
(-0.0443079 0.0500144 0)
(-0.0516889 0.0514196 0)
(-0.0591327 0.0520174 0)
(-0.0665378 0.0518325 0)
(-0.0738079 0.0508967 0)
(-0.0808528 0.0492471 0)
(-0.0875875 0.0469253 0)
(-0.0939333 0.0439759 0)
(-0.099817 0.0404465 0)
(-0.105172 0.036387 0)
(-0.109936 0.0318499 0)
(-0.114055 0.0268902 0)
(-0.117481 0.0215657 0)
(-0.120171 0.0159371 0)
(-0.12209 0.0100686 0)
(-0.12321 0.00402785 0)
(-0.123511 -0.00211353 0)
(-0.122981 -0.00828024 0)
(-0.121617 -0.0143932 0)
(-0.119423 -0.02037 0)
(-0.116416 -0.0261253 0)
(-0.11262 -0.0315717 0)
(-0.108074 -0.0366206 0)
(-0.102824 -0.0411838 0)
(-0.0969297 -0.0451753 0)
(-0.0904632 -0.0485124 0)
(-0.0835069 -0.0511189 0)
(-0.076155 -0.0529264 0)
(-0.0685123 -0.0538777 0)
(-0.0606929 -0.053929 0)
(-0.0528195 -0.0530526 0)
(-0.0450212 -0.0512395 0)
(-0.0374317 -0.0485019 0)
(-0.0301871 -0.0448753 0)
(-0.0234234 -0.0404205 0)
(-0.0172744 -0.0352251 0)
(-0.01187 -0.0294042 0)
(-0.0073301 -0.0231009 0)
(-0.00375915 -0.0164851 0)
(-0.00129968 -0.00975125 0)
(-0.000185685 -0.00312605 0)
(-0.000230385 0.00443674 0)
(-0.00153403 0.0131049 0)
(-0.00432993 0.0213505 0)
(-0.00829241 0.029008 0)
(-0.0132201 0.0359525 0)
(-0.0189737 0.0420892 0)
(-0.0254116 0.0473501 0)
(-0.0323945 0.0516921 0)
(-0.0397901 0.0550928 0)
(-0.0474726 0.0575478 0)
(-0.0553228 0.0590669 0)
(-0.0632279 0.0596716 0)
(-0.0710814 0.0593925 0)
(-0.0787835 0.0582675 0)
(-0.0862408 0.0563397 0)
(-0.0933662 0.0536567 0)
(-0.100079 0.0502692 0)
(-0.106304 0.0462308 0)
(-0.111973 0.0415975 0)
(-0.117025 0.0364279 0)
(-0.121402 0.0307832 0)
(-0.125055 0.0247277 0)
(-0.12794 0.0183288 0)
(-0.130021 0.0116576 0)
(-0.131268 0.00478908 0)
(-0.131658 -0.00219735 0)
(-0.131178 -0.00921806 0)
(-0.129821 -0.0161851 0)
(-0.127589 -0.0230065 0)
(-0.124498 -0.0295868 0)
(-0.120569 -0.0358278 0)
(-0.115838 -0.0416297 0)
(-0.110351 -0.0468926 0)
(-0.104167 -0.0515182 0)
(-0.0973568 -0.0554119 0)
(-0.0900057 -0.0584852 0)
(-0.08221 -0.0606583 0)
(-0.0740789 -0.0618632 0)
(-0.0657323 -0.0620462 0)
(-0.0573007 -0.0611713 0)
(-0.0489226 -0.0592233 0)
(-0.040743 -0.05621 0)
(-0.032911 -0.052165 0)
(-0.0255769 -0.0471496 0)
(-0.0188905 -0.0412545 0)
(-0.0129981 -0.0345999 0)
(-0.00803621 -0.0273364 0)
(-0.00412524 -0.0196423 0)
(-0.00142724 -0.0117219 0)
(-0.000204017 -0.00381207 0)
(-0.000247489 0.00524334 0)
(-0.00164625 0.0153454 0)
(-0.00464332 0.0248513 0)
(-0.00888569 0.0336011 0)
(-0.0141538 0.0414767 0)
(-0.0202949 0.0483896 0)
(-0.0271549 0.0542792 0)
(-0.0345829 0.0591091 0)
(-0.0424365 0.0628642 0)
(-0.0505815 0.0655472 0)
(-0.0588916 0.0671749 0)
(-0.0672483 0.067776 0)
(-0.0755406 0.0673882 0)
(-0.0836651 0.0660561 0)
(-0.0915257 0.0638298 0)
(-0.0990333 0.0607633 0)
(-0.106106 0.0569138 0)
(-0.112667 0.0523413 0)
(-0.118647 0.0471079 0)
(-0.123984 0.0412785 0)
(-0.12862 0.0349204 0)
(-0.132505 0.0281042 0)
(-0.135593 0.0209037 0)
(-0.137846 0.0133967 0)
(-0.139233 0.00566539 0)
(-0.139729 -0.00220339 0)
(-0.139317 -0.0101179 0)
(-0.137988 -0.0179814 0)
(-0.135742 -0.0256926 0)
(-0.13259 -0.0331457 0)
(-0.128552 -0.0402316 0)
(-0.12366 -0.0468388 0)
(-0.117959 -0.0528551 0)
(-0.111504 -0.0581693 0)
(-0.104369 -0.0626734 0)
(-0.0966364 -0.0662658 0)
(-0.0884064 -0.0688535 0)
(-0.0797915 -0.0703558 0)
(-0.0709177 -0.0707076 0)
(-0.0619229 -0.0698628 0)
(-0.0529556 -0.0677976 0)
(-0.0441726 -0.0645139 0)
(-0.0357369 -0.0600417 0)
(-0.0278143 -0.0544413 0)
(-0.0205715 -0.0478053 0)
(-0.0141726 -0.0402587 0)
(-0.00877201 -0.031959 0)
(-0.00450703 -0.0230941 0)
(-0.00156042 -0.0138792 0)
(-0.000223212 -0.00456346 0)
(-0.000264403 0.0061065 0)
(-0.00175703 0.0177412 0)
(-0.00495243 0.0285907 0)
(-0.00947061 0.0385013 0)
(-0.0150739 0.0473618 0)
(-0.0215964 0.0550916 0)
(-0.0288714 0.0616381 0)
(-0.0367364 0.0669735 0)
(-0.0450391 0.0710914 0)
(-0.0536368 0.0740029 0)
(-0.0623963 0.0757336 0)
(-0.0711935 0.0763205 0)
(-0.0799131 0.0758093 0)
(-0.0884486 0.0742526 0)
(-0.0967014 0.071708 0)
(-0.104581 0.0682366 0)
(-0.112004 0.0639027 0)
(-0.118893 0.0587727 0)
(-0.12518 0.0529152 0)
(-0.130799 0.0464012 0)
(-0.135695 0.0393041 0)
(-0.139814 0.0317005 0)
(-0.143111 0.0236704 0)
(-0.145546 0.0152979 0)
(-0.147087 0.00667194 0)
(-0.147705 -0.00211349 0)
(-0.147381 -0.0109589 0)
(-0.146103 -0.0197592 0)
(-0.143868 -0.0284037 0)
(-0.140683 -0.0367766 0)
(-0.136563 -0.0447576 0)
(-0.131537 -0.0522233 0)
(-0.125647 -0.0590484 0)
(-0.118947 -0.0651081 0)
(-0.111507 -0.07028 0)
(-0.10341 -0.0744477 0)
(-0.0947588 -0.0775035 0)
(-0.0856678 -0.0793523 0)
(-0.0762688 -0.0799152 0)
(-0.0667074 -0.0791339 0)
(-0.0571421 -0.076974 0)
(-0.0477423 -0.0734291 0)
(-0.0386854 -0.0685236 0)
(-0.030154 -0.0623155 0)
(-0.0223329 -0.0548978 0)
(-0.0154056 -0.0463997 0)
(-0.0095459 -0.0369859 0)
(-0.00490937 -0.0268541 0)
(-0.00170115 -0.0162319 0)
(-0.000243612 -0.0053836 0)
(-0.000281223 0.00702564 0)
(-0.0018669 0.0202903 0)
(-0.00525855 0.0325657 0)
(-0.0100493 0.0437043 0)
(-0.0159832 0.0536025 0)
(-0.0228814 0.0621885 0)
(-0.0305642 0.0694191 0)
(-0.0388577 0.0752766 0)
(-0.0475996 0.0797645 0)
(-0.056639 0.0829043 0)
(-0.0658356 0.0847315 0)
(-0.0750601 0.0852927 0)
(-0.0841932 0.0846432 0)
(-0.0931255 0.0828444 0)
(-0.101757 0.0799622 0)
(-0.109995 0.0760656 0)
(-0.117756 0.0712262 0)
(-0.124963 0.0655173 0)
(-0.131547 0.059014 0)
(-0.137444 0.0517935 0)
(-0.142596 0.043935 0)
(-0.146951 0.0355208 0)
(-0.150462 0.0266367 0)
(-0.153089 0.0173727 0)
(-0.154796 0.00782402 0)
(-0.155553 -0.00190885 0)
(-0.155339 -0.0117191 0)
(-0.154137 -0.0214937 0)
(-0.15194 -0.031113 0)
(-0.148749 -0.0404511 0)
(-0.144578 -0.0493769 0)
(-0.139451 -0.0577545 0)
(-0.133403 -0.0654453 0)
(-0.126486 -0.0723097 0)
(-0.118767 -0.0782102 0)
(-0.110329 -0.0830138 0)
(-0.101274 -0.0865963 0)
(-0.0917186 -0.0888461 0)
(-0.0818001 -0.0896684 0)
(-0.0716714 -0.0889899 0)
(-0.0615011 -0.0867633 0)
(-0.0514714 -0.0829712 0)
(-0.0417753 -0.0776304 0)
(-0.0326132 -0.0707943 0)
(-0.0241895 -0.0625555 0)
(-0.0167088 -0.053046 0)
(-0.010366 -0.0424378 0)
(-0.00533698 -0.0309392 0)
(-0.00185128 -0.0187916 0)
(-0.000265546 -0.00627681 0)
(-0.000298029 0.00800044 0)
(-0.00197629 0.0229915 0)
(-0.00556281 0.036774 0)
(-0.0106235 0.0492065 0)
(-0.0168842 0.0601939 0)
(-0.0241524 0.069674 0)
(-0.0322358 0.0776144 0)
(-0.0409487 0.0840088 0)
(-0.0501188 0.0888725 0)
(-0.0595869 0.0922388 0)
(-0.069206 0.0941546 0)
(-0.0788418 0.094678 0)
(-0.0883714 0.0938746 0)
(-0.0976828 0.0918159 0)
(-0.106674 0.0885771 0)
(-0.115254 0.0842357 0)
(-0.123337 0.0788712 0)
(-0.130848 0.0725641 0)
(-0.137717 0.0653959 0)
(-0.143882 0.0574499 0)
(-0.149284 0.0488111 0)
(-0.153873 0.039567 0)
(-0.157601 0.0298087 0)
(-0.160426 0.0196317 0)
(-0.162312 0.00913647 0)
(-0.163225 -0.00157033 0)
(-0.163141 -0.0123754 0)
(-0.16204 -0.0231582 0)
(-0.159911 -0.0337906 0)
(-0.156749 -0.0441374 0)
(-0.152562 -0.0540562 0)
(-0.147368 -0.0633989 0)
(-0.141198 -0.0720131 0)
(-0.1341 -0.0797438 0)
(-0.126135 -0.0864367 0)
(-0.117385 -0.0919412 0)
(-0.107949 -0.0961146 0)
(-0.0979468 -0.0988262 0)
(-0.0875196 -0.0999628 0)
(-0.0768269 -0.0994334 0)
(-0.0660474 -0.0971746 0)
(-0.0553766 -0.0931555 0)
(-0.0450236 -0.0873824 0)
(-0.0352079 -0.0799019 0)
(-0.0261553 -0.0708042 0)
(-0.0180933 -0.0602237 0)
(-0.0112403 -0.0483388 0)
(-0.00579442 -0.0353694 0)
(-0.00201262 -0.021572 0)
(-0.000289337 -0.00724838 0)
(-0.000314892 0.00903079 0)
(-0.00208563 0.0258442 0)
(-0.00586625 0.0412139 0)
(-0.011195 0.0550052 0)
(-0.017779 0.0671315 0)
(-0.025412 0.0775416 0)
(-0.0338884 0.0862154 0)
(-0.0430106 0.0931594 0)
(-0.0525962 0.0984025 0)
(-0.0624777 0.101991 0)
(-0.0725019 0.103986 0)
(-0.0825294 0.104458 0)
(-0.0924342 0.103484 0)
(-0.102103 0.101147 0)
(-0.111432 0.0975329 0)
(-0.12033 0.092728 0)
(-0.128714 0.0868201 0)
(-0.136508 0.0798973 0)
(-0.143645 0.0720479 0)
(-0.150064 0.063361 0)
(-0.155707 0.0539267 0)
(-0.160524 0.0438379 0)
(-0.164468 0.0331901 0)
(-0.167496 0.0220834 0)
(-0.16957 0.0106231 0)
(-0.170655 -0.00107901 0)
(-0.170723 -0.0129038 0)
(-0.16975 -0.0247241 0)
(-0.167719 -0.0364043 0)
(-0.164621 -0.0477997 0)
(-0.160457 -0.0587577 0)
(-0.155239 -0.0691178 0)
(-0.14899 -0.0787132 0)
(-0.141752 -0.0873731 0)
(-0.133581 -0.0949255 0)
(-0.124554 -0.1012 0)
(-0.114769 -0.106034 0)
(-0.104346 -0.109275 0)
(-0.0934272 -0.110789 0)
(-0.0821794 -0.110463 0)
(-0.0707909 -0.108214 0)
(-0.0594705 -0.103996 0)
(-0.0484444 -0.0977997 0)
(-0.0379523 -0.0896634 0)
(-0.0282431 -0.0796723 0)
(-0.0195697 -0.0679616 0)
(-0.0121763 -0.0547162 0)
(-0.00628615 -0.0401675 0)
(-0.00218693 -0.024589 0)
(-0.000315302 -0.00830454 0)
(-0.000331883 0.0101168 0)
(-0.00219535 0.0288481 0)
(-0.00616994 0.0458845 0)
(-0.0117656 0.0610977 0)
(-0.01867 0.074411 0)
(-0.0266624 0.0857849 0)
(-0.0355236 0.0952129 0)
(-0.0450438 0.102716 0)
(-0.0550303 0.10834 0)
(-0.0653074 0.112144 0)
(-0.0757154 0.114206 0)
(-0.0861109 0.11461 0)
(-0.0963648 0.113448 0)
(-0.106362 0.110813 0)
(-0.116001 0.106804 0)
(-0.125189 0.101517 0)
(-0.133845 0.0950493 0)
(-0.141897 0.0874957 0)
(-0.149279 0.0789516 0)
(-0.155931 0.0695117 0)
(-0.161799 0.0592715 0)
(-0.166833 0.0483279 0)
(-0.170987 0.0367806 0)
(-0.174218 0.0247335 0)
(-0.176488 0.0122957 0)
(-0.177759 -0.000416797 0)
(-0.177999 -0.0132802 0)
(-0.177182 -0.0261618 0)
(-0.175283 -0.0389189 0)
(-0.172289 -0.0513988 0)
(-0.168191 -0.0634387 0)
(-0.162995 -0.074866 0)
(-0.156717 -0.0854998 0)
(-0.149389 -0.0951529 0)
(-0.14106 -0.103634 0)
(-0.131803 -0.110753 0)
(-0.121709 -0.116323 0)
(-0.110898 -0.120169 0)
(-0.0995135 -0.12213 0)
(-0.0877269 -0.12207 0)
(-0.0757355 -0.119884 0)
(-0.0637616 -0.115503 0)
(-0.0520488 -0.108901 0)
(-0.0408586 -0.100104 0)
(-0.0304647 -0.0891894 0)
(-0.0211478 -0.0762913 0)
(-0.0131812 -0.0616001 0)
(-0.00681651 -0.0453595 0)
(-0.002376 -0.0278607 0)
(-0.000343762 -0.0094524 0)
(-0.00034908 0.0112588 0)
(-0.00230593 0.0320037 0)
(-0.00647512 0.0507855 0)
(-0.0123373 0.0674825 0)
(-0.0195597 0.0820284 0)
(-0.0279063 0.0943969 0)
(-0.0371435 0.104597 0)
(-0.0470489 0.112666 0)
(-0.0574193 0.118666 0)
(-0.0680705 0.122676 0)
(-0.0788371 0.12479 0)
(-0.0895714 0.125107 0)
(-0.100142 0.123735 0)
(-0.110435 0.120783 0)
(-0.120346 0.116359 0)
(-0.129789 0.110572 0)
(-0.138682 0.103528 0)
(-0.146958 0.0953307 0)
(-0.154553 0.0860814 0)
(-0.16141 0.0758808 0)
(-0.16748 0.0648288 0)
(-0.172714 0.0530261 0)
(-0.177067 0.0405757 0)
(-0.180498 0.0275842 0)
(-0.182966 0.0141636 0)
(-0.184434 0.00043277 0)
(-0.184866 -0.0134809 0)
(-0.184231 -0.0274402 0)
(-0.1825 -0.041297 0)
(-0.17965 -0.0548912 0)
(-0.175668 -0.0680509 0)
(-0.170548 -0.080592 0)
(-0.164297 -0.0923196 0)
(-0.156937 -0.10303 0)
(-0.14851 -0.112511 0)
(-0.139078 -0.120552 0)
(-0.128727 -0.126939 0)
(-0.117573 -0.131472 0)
(-0.105758 -0.133961 0)
(-0.0934585 -0.134241 0)
(-0.0808784 -0.13218 0)
(-0.0682531 -0.127683 0)
(-0.0558445 -0.120704 0)
(-0.0439365 -0.111249 0)
(-0.0328302 -0.0993859 0)
(-0.0228369 -0.085246 0)
(-0.0142621 -0.0690234 0)
(-0.00738979 -0.0509737 0)
(-0.00258157 -0.0314073 0)
(-0.000375049 -0.0107 0)
(-0.000366582 0.0124574 0)
(-0.00241796 0.035312 0)
(-0.00678329 0.0559173 0)
(-0.0129125 0.0741585 0)
(-0.0204512 0.0899801 0)
(-0.0291468 0.103371 0)
(-0.0387506 0.114356 0)
(-0.0490268 0.122992 0)
(-0.0597611 0.129361 0)
(-0.0707613 0.133562 0)
(-0.0818559 0.135707 0)
(-0.0928938 0.135915 0)
(-0.103743 0.13431 0)
(-0.114288 0.131017 0)
(-0.124429 0.126158 0)
(-0.13408 0.119853 0)
(-0.143167 0.112218 0)
(-0.151623 0.103366 0)
(-0.15939 0.0934041 0)
(-0.166418 0.0824391 0)
(-0.172658 0.0705747 0)
(-0.178066 0.0579149 0)
(-0.182601 0.0445646 0)
(-0.18622 0.0306325 0)
(-0.188886 0.016232 0)
(-0.190558 0.0014836 0)
(-0.191199 -0.0134832 0)
(-0.190772 -0.0285282 0)
(-0.189244 -0.0434991 0)
(-0.186584 -0.0582301 0)
(-0.18277 -0.0725409 0)
(-0.177785 -0.0862372 0)
(-0.171626 -0.0991103 0)
(-0.164303 -0.110939 0)
(-0.155847 -0.121494 0)
(-0.146308 -0.130536 0)
(-0.135765 -0.137828 0)
(-0.124325 -0.143138 0)
(-0.112129 -0.146245 0)
(-0.0993529 -0.146951 0)
(-0.0862083 -0.145091 0)
(-0.0729422 -0.140538 0)
(-0.0598346 -0.133219 0)
(-0.0471932 -0.12312 0)
(-0.0353484 -0.110292 0)
(-0.0246453 -0.0948604 0)
(-0.0154257 -0.0770212 0)
(-0.00801023 -0.0570412 0)
(-0.00280544 -0.0352512 0)
(-0.000409509 -0.0120564 0)
(-0.000384521 0.0137135 0)
(-0.00253223 0.0387748 0)
(-0.00709643 0.0612816 0)
(-0.0134945 0.0811255 0)
(-0.0213486 0.0982629 0)
(-0.0303884 0.112698 0)
(-0.0403486 0.124477 0)
(-0.0509789 0.133676 0)
(-0.062054 0.1404 0)
(-0.0733732 0.144771 0)
(-0.0847594 0.146922 0)
(-0.0960587 0.146994 0)
(-0.107138 0.145129 0)
(-0.117885 0.141469 0)
(-0.128202 0.136151 0)
(-0.138007 0.12931 0)
(-0.147232 0.12107 0)
(-0.155815 0.111554 0)
(-0.163705 0.100876 0)
(-0.170856 0.0891482 0)
(-0.177225 0.0764768 0)
(-0.182773 0.0629684 0)
(-0.187462 0.0487296 0)
(-0.191253 0.0338693 0)
(-0.194108 0.0185012 0)
(-0.195987 0.00274595 0)
(-0.19685 -0.0132666 0)
(-0.196656 -0.029395 0)
(-0.195367 -0.0454845 0)
(-0.192943 -0.061365 0)
(-0.189353 -0.0768501 0)