/*--------------------------------*- C++ -*----------------------------------*\
| =========                 |                                                 |
| \\      /  F ield         | OpenFOAM: The Open Source CFD Toolbox           |
|  \\    /   O peration     | Version:  2312                                  |
|   \\  /    A nd           | Website:  www.openfoam.com                      |
|    \\/     M anipulation  |                                                 |
\*---------------------------------------------------------------------------*/
FoamFile
{
    version     2.0;
    format      ascii;
    arch        "LSB;label=32;scalar=64";
    class       volScalarField;
    location    "50";
    object      p;
}
// * * * * * * * * * * * * * * * * * * * * * * * * * * * * * * * * * * * * * //

dimensions      [0 2 -2 0 0 0 0];

internalField   nonuniform List<scalar> 
2601
(
-2.42935e-07
4.15961e-05
4.80838e-05
2.6175e-05
-1.9784e-05
-7.08262e-05
-0.000112074
-0.000137992
-0.000153176
-0.000168357
-0.000197292
-0.000253364
-0.000347152
-0.000485786
-0.000688117
-0.000982179
-0.00139951
-0.00193294
-0.00250425
-0.00293411
-0.00316072
-0.00320914
-0.00314006
-0.00296196
-0.00261322
-0.00199093
-0.000994746
0.000442808
0.00234596
0.00468289
0.00732479
0.0100483
0.0125288
0.0143651
0.0151393
0.0145379
0.0124941
0.00923427
0.00534315
0.00158155
-0.00135266
-0.00319243
-0.00396903
-0.00412095
-0.00408378
-0.00398196
-0.00380258
-0.00357494
-0.00338493
-0.00326682
-0.00320084
-3.24216e-05
1.17926e-05
1.3257e-05
-1.00885e-05
-5.25425e-05
-9.5952e-05
-0.00012816
-0.00014272
-0.00014892
-0.00015649
-0.000176961
-0.000221955
-0.000305555
-0.000448884
-0.000655726
-0.000859425
-0.00107809
-0.00144927
-0.0019979
-0.00258754
-0.00305382
-0.00335501
-0.0035048
-0.00349548
-0.00326884
-0.00273106
-0.00178536
-0.000374117
0.00148656
0.00375213
0.00631344
0.00895957
0.0113777
0.0131718
0.013919
0.0133078
0.0112718
0.00788222
0.00388371
9.23265e-05
-0.00273719
-0.00434804
-0.00487749
-0.00471535
-0.00430797
-0.00388693
-0.00355782
-0.00334513
-0.00322864
-0.0031675
-0.00311782
-6.15524e-05
-3.67658e-06
-1.02282e-05
-4.51895e-05
-9.59834e-05
-0.000137521
-0.000155926
-0.00015554
-0.000141936
-0.000130159
-0.000135997
-0.000173758
-0.000241528
-0.000310277
-0.000450969
-0.000786827
-0.00132197
-0.00198745
-0.00274404
-0.00351188
-0.00420391
-0.00476174
-0.00514882
-0.0053236
-0.00522446
-0.00477515
-0.00391097
-0.00260533
-0.000851285
0.00129285
0.00371952
0.00625111
0.00861081
0.0104295
0.0112935
0.0108708
0.00905249
0.00592938
0.00209874
-0.001692
-0.00445487
-0.00595485
-0.00627897
-0.00585287
-0.00510166
-0.00434172
-0.00375667
-0.00338616
-0.00319366
-0.00311431
-0.00304169
-9.49823e-05
-2.46544e-05
-5.23078e-05
-0.00011066
-0.000174841
-0.000212943
-0.00021413
-0.000185251
-0.000143444
-0.000110043
-9.69795e-05
-0.000106787
-0.000187197
-0.000416916
-0.000837285
-0.00148681
-0.00236935
-0.0034088
-0.00449251
-0.00553808
-0.00647742
-0.00725837
-0.00783692
-0.00816828
-0.00820145
-0.00788495
-0.00718076
-0.00607337
-0.00455486
-0.00265716
-0.000462766
0.00188349
0.00415628
0.00604181
0.00716303
0.00717495
0.00591428
0.00344768
0.000201349
-0.00311545
-0.0055878
-0.00687978
-0.00708262
-0.0065863
-0.00575528
-0.00484335
-0.00406989
-0.00354418
-0.00325555
-0.0031369
-0.00305207
-0.00012192
-4.956e-05
-0.000115452
-0.000209455
-0.000288889
-0.00031897
-0.000295739
-0.00023676
-0.000167864
-0.000118183
-0.000124579
-0.00026015
-0.000597846
-0.00118864
-0.00204095
-0.00312832
-0.00440521
-0.00578428
-0.00715804
-0.0084382
-0.00956324
-0.0104904
-0.0111864
-0.0116215
-0.0117673
-0.0115978
-0.0110905
-0.0102283
-0.00900023
-0.00742598
-0.00555881
-0.00349773
-0.00140297
0.000490588
0.00187869
0.00244341
0.00197485
0.000472593
-0.00179393
-0.00425239
-0.00615377
-0.00713248
-0.00722632
-0.0067478
-0.00597898
-0.00511898
-0.00433623
-0.0037596
-0.00340927
-0.00325082
-0.00316133
-0.000121129
-7.13247e-05
-0.00019615
-0.000336913
-0.000430142
-0.00044961
-0.000400372
-0.000320118
-0.000256917
-0.000278963
-0.000479337
-0.000945026
-0.0017182
-0.00279298
-0.00412854
-0.00564898
-0.00726379
-0.00888037
-0.0104141
-0.0117987
-0.0129885
-0.0139544
-0.0146781
-0.0151487
-0.0153603
-0.015308
-0.0149772
-0.0143378
-0.0133873
-0.0121434
-0.0106406
-0.00893885
-0.00713668
-0.00538427
-0.00388771
-0.00288447
-0.00257221
-0.00301201
-0.0040834
-0.00539941
-0.00646769
-0.00695851
-0.00686902
-0.00641058
-0.00577303
-0.00508158
-0.00442512
-0.00391231
-0.00357596
-0.00340901
-0.00332872
-5.94155e-05
-6.92529e-05
-0.000272997
-0.000467429
-0.000576629
-0.000584105
-0.00052663
-0.000475776
-0.000523853
-0.000787572
-0.00136754
-0.00230759
-0.00359429
-0.00515744
-0.00689986
-0.0087189
-0.0105193
-0.0122225
-0.0137706
-0.0151258
-0.0162657
-0.0171789
-0.0178624
-0.0183178
-0.0185495
-0.0185605
-0.0183433
-0.0178764
-0.017161
-0.0162092
-0.0150429
-0.0136987
-0.0122343
-0.0107372
-0.00932626
-0.0081387
-0.00729919
-0.00686549
-0.0067944
-0.00690909
-0.00695049
-0.00676126
-0.00633816
-0.00580612
-0.0052802
-0.00477274
-0.00431884
-0.00394654
-0.00368832
-0.00355081
-0.00349612
0.00010827
5.07322e-06
-0.000289608
-0.000537758
-0.000667948
-0.000685765
-0.000682374
-0.000771904
-0.00109444
-0.00176902
-0.00284899
-0.00431184
-0.00606684
-0.00799523
-0.00997953
-0.0119203
-0.0137421
-0.0153948
-0.0168508
-0.0180992
-0.0191376
-0.019968
-0.0205944
-0.0210231
-0.0212608
-0.0213102
-0.0211687
-0.0208316
-0.0203011
-0.0195843
-0.0186945
-0.0176537
-0.0164943
-0.0152616
-0.0140156
-0.0128253
-0.0117419
-0.0107707
-0.0098692
-0.00896353
-0.0079942
-0.00696682
-0.00599081
-0.00520444
-0.0046806
-0.00433237
-0.00407156
-0.00387384
-0.00373299
-0.00365378
-0.0036286
0.000445227
0.00024011
-0.000146921
-0.000450978
-0.000618142
-0.000719349
-0.000884732
-0.00127539
-0.00203433
-0.00322925
-0.00483673
-0.00675152
-0.00883626
-0.0109592
-0.0130143
-0.0149287
-0.0166601
-0.0181903
-0.0195152
-0.0206386
-0.0215691
-0.0223165
-0.0228894
-0.0232954
-0.0235406
-0.0236274
-0.0235556
-0.0233253
-0.0229385
-0.0224001
-0.0217186
-0.0209073
-0.019985
-0.0189758
-0.0179057
-0.0167941
-0.0156412
-0.0144188
-0.0130622
-0.0115055
-0.00974669
-0.00789894
-0.00619332
-0.00489958
-0.00414631
-0.00390963
-0.00379131
-0.00375316
-0.00373147
-0.00372181
-0.00372273
0.00103528
0.00072789
0.000272992
-9.37012e-05
-0.00037266
-0.000673597
-0.00116884
-0.00202517
-0.00332914
-0.00506731
-0.00712786
-0.009358
-0.0116124
-0.0137776
-0.0157812
-0.0175872
-0.0191834
-0.0205723
-0.021765
-0.0227755
-0.0236171
-0.0243011
-0.0248364
-0.0252298
-0.0254861
-0.0256085
-0.0255979
-0.0254551
-0.0251822
-0.0247825
-0.0242604
-0.0236229
-0.0228791
-0.0220398
-0.0211126
-0.0200943
-0.0189615
-0.0176638
-0.0161263
-0.0142706
-0.0120713
-0.00961883
-0.0071913
-0.00520377
-0.00396162
-0.00349426
-0.00358801
-0.00364756
-0.00372502
-0.00377506
-0.00379096
0.00190915
0.00151385
0.00102227
0.000545572
5.65573e-05
-0.000596747
-0.00158669
-0.00302074
-0.0049007
-0.00711724
-0.00950497
-0.0119054
-0.0141966
-0.0163048
-0.0181969
-0.0198665
-0.0213241
-0.0225868
-0.0236728
-0.0245982
-0.0253764
-0.0260176
-0.0265298
-0.0269184
-0.0271869
-0.0273379
-0.0273742
-0.0273006
-0.0271166
-0.0268234
-0.0264223
-0.0259159
-0.0253068
-0.0245968
-0.0237828
-0.0228512
-0.0217712
-0.020489
-0.0189278
-0.0170041
-0.0146601
-0.011922
-0.00898719
-0.00629089
-0.00435201
-0.00340776
-0.00351122
-0.00362475
-0.00374732
-0.003838
-0.00385485
0.00302125
0.0025803
0.0020343
0.00137788
0.000552782
-0.000599129
-0.00219098
-0.00423882
-0.00664125
-0.00922045
-0.0118022
-0.0142541
-0.0164978
-0.0185019
-0.0202665
-0.021809
-0.0231529
-0.0243208
-0.0253315
-0.0261998
-0.0269368
-0.0275513
-0.0280502
-0.0284386
-0.0287196
-0.0288964
-0.0289724
-0.0289516
-0.028834
-0.0286199
-0.0283086
-0.0278987
-0.0273882
-0.0267731
-0.0260448
-0.025186
-0.0241659
-0.0229356
-0.0214271
-0.0195583
-0.0172531
-0.014483
-0.011336
-0.00813166
-0.00545481
-0.00382041
-0.0032383
-0.00378933
-0.00380973
-0.00393064
-0.00394165
0.00421128
0.00376356
0.00311455
0.00219577
0.000926017
-0.000806809
-0.00302672
-0.00563933
-0.00845141
-0.0112632
-0.0139249
-0.0163491
-0.0185038
-0.0203946
-0.0220469
-0.0234909
-0.024754
-0.0258583
-0.0268203
-0.0276521
-0.0283629
-0.0289602
-0.0294502
-0.0298381
-0.0301279
-0.0303234
-0.0304286
-0.0304468
-0.0303784
-0.0302235
-0.0299797
-0.0296431
-0.029208
-0.0286659
-0.0280045
-0.0272051
-0.02624
-0.0250688
-0.0236363
-0.0218719
-0.0196958
-0.0170448
-0.0139227
-0.0104959
-0.00722456
-0.00478897
-0.00361043
-0.00397301
-0.00400188
-0.00406164
-0.00408323
0.00523991
0.00477028
0.00398708
0.00275129
0.000993914
-0.00132209
-0.00411397
-0.00717381
-0.0102581
-0.0131825
-0.0158405
-0.0181932
-0.0202494
-0.0220423
-0.0236101
-0.0249865
-0.0261976
-0.0272622
-0.0281936
-0.0290018
-0.0296946
-0.0302788
-0.0307607
-0.0311458
-0.0314394
-0.0316456
-0.031769
-0.0318126
-0.0317786
-0.031666
-0.0314717
-0.0311905
-0.030814
-0.030331
-0.0297264
-0.0289804
-0.0280673
-0.0269539
-0.0255972
-0.0239423
-0.0219198
-0.019453
-0.0164927
-0.0130815
-0.00949607
-0.00638485
-0.00438625
-0.00334895
-0.0045206
-0.00421337
-0.00430685
0.00587493
0.0053642
0.00442613
0.00286075
0.000639947
-0.00219477
-0.00543658
-0.00879341
-0.0120156
-0.014956
-0.0175568
-0.0198213
-0.0217892
-0.0235079
-0.0250187
-0.0263531
-0.027533
-0.0285735
-0.0294854
-0.0302769
-0.0309555
-0.0315279
-0.0320008
-0.0323805
-0.0326728
-0.0328831
-0.0330161
-0.0330747
-0.0330622
-0.0329778
-0.0328181
-0.032577
-0.032245
-0.0318093
-0.0312531
-0.0305561
-0.0296937
-0.0286372
-0.0273523
-0.0257975
-0.0239188
-0.0216461
-0.0189029
-0.0156559
-0.0120097
-0.00838795
-0.00552656
-0.00403376
-0.00494281
-0.00449172
-0.00461258
0.00594544
0.00539713
0.00430566
0.00244268
-0.000175883
-0.00341197
-0.00694766
-0.0104518
-0.0136985
-0.0165871
-0.0191017
-0.0212792
-0.0231764
-0.0248437
-0.0263193
-0.0276295
-0.0287914
-0.0298169
-0.0307149
-0.031493
-0.0321587
-0.0327192
-0.0331815
-0.0335526
-0.0338393
-0.0340472
-0.0341817
-0.0342474
-0.0342464
-0.0341787
-0.0340413
-0.0338282
-0.0335295
-0.0331316
-0.0326169
-0.0319646
-0.0311509
-0.0301497
-0.0289325
-0.0274673
-0.0257139
-0.0236167
-0.0210972
-0.0180732
-0.0145343
-0.0106972
-0.00730288
-0.00525206
-0.0038848
-0.00535151
-0.00490041
0.00542006
0.00483665
0.00360541
0.00149872
-0.00141693
-0.00490778
-0.00858241
-0.0121072
-0.0152953
-0.01809
-0.0205082
-0.022609
-0.0244532
-0.026087
-0.0275424
-0.0288392
-0.0299904
-0.0310054
-0.031892
-0.0326579
-0.0333109
-0.0338586
-0.0343088
-0.034669
-0.0349463
-0.0351473
-0.0352776
-0.0353426
-0.0353445
-0.0352839
-0.0351586
-0.0349628
-0.0346873
-0.0343184
-0.0338386
-0.033227
-0.0324601
-0.031513
-0.0303603
-0.0289764
-0.0273318
-0.0253859
-0.023072
-0.020291
-0.0169601
-0.013135
-0.00927855
-0.00613444
-0.0038323
-0.00667805
-0.00530523
0.00432866
0.00372437
0.00238645
0.000110763
-0.00298369
-0.00658719
-0.0102715
-0.0137238
-0.0168011
-0.0194811
-0.0218056
-0.0238427
-0.0256485
-0.0272615
-0.0287056
-0.029995
-0.0311389
-0.0321452
-0.0330214
-0.0337754
-0.0344155
-0.0349499
-0.0353868
-0.0357343
-0.0359999
-0.0361905
-0.0363124
-0.0363709
-0.036369
-0.036308
-0.0361862
-0.0359988
-0.0357372
-0.0353887
-0.0349363
-0.0343596
-0.0336356
-0.0327401
-0.0316492
-0.0303404
-0.0287916
-0.0269746
-0.0248408
-0.0223011
-0.0192313
-0.0155678
-0.0114704
-0.00767364
-0.00577734
-0.00657153
-0.00586452
0.00279023
0.00218048
0.000778567
-0.00158651
-0.00474976
-0.00835035
-0.0119515
-0.015273
-0.0182135
-0.0207749
-0.0230153
-0.0250013
-0.0267798
-0.0283799
-0.0298176
-0.0311021
-0.0322401
-0.0332385
-0.0341048
-0.0348472
-0.0354745
-0.0359953
-0.0364183
-0.0367518
-0.0370038
-0.0371815
-0.0372915
-0.0373393
-0.0373286
-0.0372611
-0.0371361
-0.0369496
-0.0366941
-0.036358
-0.0359255
-0.035377
-0.0346904
-0.0338419
-0.0328085
-0.0315694
-0.0301064
-0.0284004
-0.0264191
-0.0240951
-0.0213029
-0.0179126
-0.0139502
-0.0100874
-0.00748078
-0.00470108
-0.00684865
0.000965933
0.00036534
-0.00106072
-0.00344629
-0.00659181
-0.0101086
-0.0135702
-0.0167335
-0.0195305
-0.021981
-0.0241498
-0.0260957
-0.0278548
-0.0294467
-0.0308806
-0.0321614
-0.0332943
-0.0342855
-0.0351424
-0.0358737
-0.0364885
-0.0369959
-0.0374048
-0.0377238
-0.037961
-0.038124
-0.0382196
-0.0382536
-0.0382301
-0.0381514
-0.0380177
-0.0378258
-0.0375695
-0.0372385
-0.0368183
-0.0362907
-0.0356346
-0.0348268
-0.0338449
-0.0326685
-0.0312817
-0.0296706
-0.0278162
-0.0256748
-0.0231509
-0.0201151
-0.0165357
-0.0126821
-0.00886265
-0.00482748
-0.00934387
-0.000980851
-0.00155976
-0.00297967
-0.00533548
-0.00840525
-0.0117912
-0.0150882
-0.0180888
-0.0207497
-0.0231033
-0.0252134
-0.0271285
-0.028874
-0.0304609
-0.0318926
-0.033171
-0.0342997
-0.0352846
-0.0361332
-0.0368545
-0.0374576
-0.0379522
-0.0383472
-0.0386515
-0.0388733
-0.0390205
-0.0391
-0.0391178
-0.0390787
-0.0389853
-0.0388385
-0.0386363
-0.0383733
-0.0380407
-0.0376257
-0.0371114
-0.0364779
-0.0357033
-0.0347653
-0.033644
-0.0323235
-0.0307924
-0.0290396
-0.0270417
-0.0247415
-0.0220385
-0.0188412
-0.0151646
-0.0112654
-0.00926443
-0.0126945
-0.0029061
-0.00345544
-0.00485067
-0.00714661
-0.010109
-0.0133455
-0.0164766
-0.0193256
-0.0218668
-0.0241399
-0.0262038
-0.0280962
-0.029833
-0.0314178
-0.0328492
-0.0341267
-0.0352528
-0.0362331
-0.0370751
-0.0377877
-0.0383806
-0.0388632
-0.039245
-0.0395349
-0.0397412
-0.0398718
-0.039934
-0.0399342
-0.0398772
-0.0397664
-0.0396032
-0.0393864
-0.0391118
-0.0387718
-0.0383552
-0.0378468
-0.0372279
-0.0364779
-0.0355753
-0.0345
-0.0332361
-0.0317725
-0.0301019
-0.0282129
-0.0260715
-0.0235966
-0.0206696
-0.0173124
-0.0143294
-0.0143419
-0.0149463
-0.00469507
-0.00521369
-0.00657635
-0.00879958
-0.0116441
-0.0147345
-0.0177141
-0.0204321
-0.0228742
-0.0250841
-0.0271137
-0.0289909
-0.0307239
-0.0323098
-0.0337435
-0.0350226
-0.0361487
-0.0371268
-0.0379644
-0.0386705
-0.0392547
-0.0397269
-0.0400964
-0.0403725
-0.0405634
-0.0406774
-0.0407218
-0.0407033
-0.0406269
-0.0404966
-0.0403143
-0.0400795
-0.0397891
-0.0394368
-0.0390125
-0.0385029
-0.0378908
-0.0371569
-0.0362805
-0.035242
-0.0340248
-0.0326175
-0.0310131
-0.0292043
-0.0271665
-0.024835
-0.022095
-0.0189778
-0.0162125
-0.0156333
-0.0144067
-0.00626648
-0.00676166
-0.00809044
-0.01024
-0.0129704
-0.0159324
-0.0187846
-0.0213968
-0.0237625
-0.025926
-0.0279327
-0.0298023
-0.0315366
-0.0331276
-0.0345671
-0.0358513
-0.0369808
-0.03796
-0.0387961
-0.0394982
-0.040076
-0.0405394
-0.040898
-0.0411612
-0.0413375
-0.041435
-0.0414614
-0.0414236
-0.0413269
-0.0411755
-0.0409719
-0.0407164
-0.0404067
-0.0400375
-0.0396002
-0.0390828
-0.0384699
-0.0377434
-0.0368841
-0.0358729
-0.0346933
-0.0333329
-0.0317829
-0.0300354
-0.0280713
-0.0258492
-0.0232578
-0.0202199
-0.0167624
-0.0134322
-0.0105893
-0.00757169
-0.00805366
-0.00935357
-0.0114341
-0.0140623
-0.0169215
-0.0196742
-0.0222082
-0.0245205
-0.0266538
-0.0286485
-0.0305181
-0.0322591
-0.0338599
-0.0353098
-0.0366034
-0.0377405
-0.0387249
-0.0395632
-0.0402644
-0.0408384
-0.0412951
-0.0416446
-0.0418961
-0.0420586
-0.0421403
-0.0421489
-0.0420916
-0.041974
-0.0418005
-0.0415741
-0.0412955
-0.0409634
-0.0405734
-0.0401182
-0.0395871
-0.0389662
-0.0382392
-0.0373881
-0.036395
-0.0352438
-0.033921
-0.0324162
-0.0307215
-0.0288237
-0.0267041
-0.0242571
-0.0212577
-0.0171567
-0.0120163
-0.00819372
-0.00860016
-0.00906265
-0.0103442
-0.0123651
-0.0149091
-0.0176883
-0.0203704
-0.0228549
-0.0251373
-0.0272549
-0.0292481
-0.031125
-0.0328784
-0.0344941
-0.0359596
-0.0372679
-0.0384178
-0.0394119
-0.0402567
-0.0409607
-0.0415339
-0.0419866
-0.0423289
-0.0425705
-0.0427205
-0.0427872
-0.0427787
-0.0427021
-0.0425633
-0.042367
-0.0421164
-0.041813
-0.0414559
-0.0410416
-0.0405639
-0.0400135
-0.039378
-0.0386427
-0.0377912
-0.0368072
-0.0356754
-0.034382
-0.0329155
-0.0312695
-0.0294365
-0.0274132
-0.0250949
-0.0221827
-0.0178904
-0.0123503
-0.00841702
-0.00935886
-0.00978793
-0.011056
-0.0130343
-0.0155173
-0.0182217
-0.0208635
-0.0233265
-0.0256015
-0.0277171
-0.0297186
-0.0316089
-0.0333802
-0.0350163
-0.0365029
-0.0378316
-0.0389998
-0.0400091
-0.0408652
-0.0415765
-0.0421527
-0.0426045
-0.0429422
-0.0431758
-0.0433148
-0.0433678
-0.043343
-0.0432476
-0.0430877
-0.0428682
-0.0425926
-0.0422627
-0.0418782
-0.0414365
-0.0409323
-0.0403574
-0.039701
-0.0389501
-0.0380901
-0.0371065
-0.0359851
-0.034713
-0.0332796
-0.0316819
-0.0299161
-0.0279883
-0.0257985
-0.0230632
-0.018975
-0.0137957
-0.0102022
-0.00987328
-0.0102527
-0.0114971
-0.0134404
-0.015879
-0.0185366
-0.0211573
-0.0236166
-0.0258991
-0.028031
-0.0300474
-0.0319556
-0.0337496
-0.0354111
-0.0369245
-0.0382796
-0.0394723
-0.0405027
-0.0413758
-0.0420993
-0.042683
-0.0431375
-0.0434737
-0.043702
-0.043832
-0.0438728
-0.0438328
-0.0437194
-0.0435386
-0.0432957
-0.0429944
-0.0426367
-0.0422228
-0.0417508
-0.0412162
-0.040612
-0.0399287
-0.0391551
-0.0382785
-0.0372866
-0.0361666
-0.0349076
-0.0335011
-0.0319482
-0.030247
-0.0284118
-0.0263533
-0.023866
-0.0202364
-0.0158135
-0.0125952
-0.0101854
-0.0104957
-0.0116931
-0.0135945
-0.0159983
-0.0186345
-0.021253
-0.0237233
-0.0260248
-0.0281801
-0.0302191
-0.0321513
-0.0339712
-0.0356622
-0.0372077
-0.0385952
-0.0398184
-0.0408765
-0.0417728
-0.0425144
-0.0431107
-0.0435727
-0.0439113
-0.0441373
-0.0442607
-0.0442916
-0.0442379
-0.0441074
-0.0439064
-0.04364
-0.0433123
-0.0429256
-0.0424804
-0.0419753
-0.0414066
-0.0407684
-0.0400525
-0.0392495
-0.0383487
-0.0373396
-0.0362118
-0.0349571
-0.0335705
-0.0320576
-0.0304175
-0.0286736
-0.0267524
-0.0245423
-0.021434
-0.0178193
-0.0150336
-0.0103435
-0.0105598
-0.0116774
-0.013519
-0.0158872
-0.0185148
-0.0211461
-0.0236408
-0.0259702
-0.0281532
-0.0302193
-0.0321801
-0.0340305
-0.0357548
-0.0373363
-0.038761
-0.0400206
-0.0411128
-0.042039
-0.0428053
-0.0434205
-0.0438953
-0.0442411
-0.0444691
-0.0445884
-0.0446123
-0.044547
-0.044401
-0.0441805
-0.0438909
-0.0435364
-0.0431195
-0.0426411
-0.0421001
-0.0414937
-0.0408169
-0.040063
-0.039224
-0.038291
-0.0372561
-0.0361105
-0.0348498
-0.0334723
-0.0319892
-0.0303994
-0.0287393
-0.0269559
-0.0250168
-0.022415
-0.0195511
-0.0171494
-0.0103851
-0.0104788
-0.0114815
-0.0132397
-0.0155611
-0.0181798
-0.0208318
-0.0233608
-0.0257259
-0.0279414
-0.0300373
-0.0320283
-0.0339115
-0.0356719
-0.0372929
-0.0387594
-0.040061
-0.0411933
-0.0421563
-0.0429543
-0.0435953
-0.0440896
-0.0444484
-0.0446832
-0.0448049
-0.0448241
-0.0447493
-0.0445897
-0.0443508
-0.0440385
-0.0436568
-0.0432086
-0.042695
-0.0421154
-0.0414675
-0.0407474
-0.0399495
-0.0390682
-0.038095
-0.037025
-0.0358517
-0.0345741
-0.033193
-0.0317279
-0.0301721
-0.0285878
-0.0269345
-0.0252323
-0.0230591
-0.0208104
-0.0187719
-0.0103206
-0.0102672
-0.0111307
-0.012782
-0.0150379
-0.0176372
-0.0203092
-0.0228776
-0.0252841
-0.0275364
-0.0296637
-0.031685
-0.0336005
-0.0353979
-0.0370604
-0.0385722
-0.039921
-0.0410997
-0.0421065
-0.0429439
-0.0436186
-0.0441399
-0.0445188
-0.0447669
-0.0448954
-0.0449147
-0.0448334
-0.0446632
-0.0444076
-0.0440731
-0.0436641
-0.0431836
-0.042633
-0.0420119
-0.0413188
-0.0405506
-0.039703
-0.0387713
-0.0377497
-0.0366349
-0.035423
-0.0341163
-0.0327164
-0.0312544
-0.0297048
-0.0281906
-0.0266368
-0.0251395
-0.0233213
-0.0215473
-0.0198133
-0.0101314
-0.00992225
-0.0106472
-0.0121723
-0.0143382
-0.0168997
-0.0195825
-0.0221894
-0.0246396
-0.0269311
-0.0290902
-0.0311399
-0.0330855
-0.0349182
-0.0366223
-0.0381813
-0.0395812
-0.0408124
-0.0418703
-0.0427554
-0.0434723
-0.0440293
-0.0444366
-0.0447055
-0.0448475
-0.0448734
-0.0447938
-0.0446126
-0.0443419
-0.0439863
-0.0435503
-0.0430367
-0.0424471
-0.0417818
-0.0410396
-0.0402182
-0.0393144
-0.0383247
-0.0372455
-0.036075
-0.0348123
-0.0334624
-0.0320309
-0.0305526
-0.0289813
-0.0275346
-0.0260253
-0.0247048
-0.0231513
-0.0217449
-0.0202594
-0.00979682
-0.00945016
-0.0100621
-0.0114431
-0.0134882
-0.0159864
-0.0186626
-0.0212987
-0.0237897
-0.0261197
-0.0283092
-0.0303845
-0.0323565
-0.0342212
-0.0359652
-0.0375719
-0.0390258
-0.0403144
-0.0414305
-0.0423717
-0.0431402
-0.0437424
-0.0441874
-0.0444858
-0.0446488
-0.0446872
-0.0446107
-0.0444272
-0.0441453
-0.0437709
-0.0433085
-0.0427614
-0.0421314
-0.041419
-0.0406237
-0.0397438
-0.038777
-0.0377212
-0.0365742
-0.0353364
-0.0340088
-0.0325997
-0.0311185
-0.0295931
-0.0279977
-0.0265881
-0.0250642
-0.0239102
-0.0225387
-0.0214334
-0.0201156
-0.00933333
-0.00891477
-0.00942787
-0.0106359
-0.012523
-0.014925
-0.0175669
-0.0202132
-0.0227346
-0.0250969
-0.0273131
-0.0294097
-0.0314036
-0.033296
-0.035077
-0.0367309
-0.0382407
-0.0395915
-0.0407725
-0.0417782
-0.042608
-0.0432657
-0.0437586
-0.0440963
-0.0442893
-0.0443481
-0.0442825
-0.0441013
-0.0438122
-0.0434217
-0.0429344
-0.0423538
-0.041682
-0.0409198
-0.0400672
-0.0391231
-0.0380862
-0.0369553
-0.0357296
-0.0344113
-0.0330034
-0.0315173
-0.0299639
-0.0283728
-0.0267452
-0.025314
-0.0237534
-0.0227466
-0.0214656
-0.020616
-0.0194053
-0.00882264
-0.0084461
-0.00881402
-0.00980282
-0.0114923
-0.0137557
-0.0163219
-0.0189459
-0.0214769
-0.0238592
-0.0260949
-0.0282075
-0.0302182
-0.0321341
-0.0339493
-0.0356496
-0.037217
-0.0386339
-0.0398863
-0.040965
-0.0418657
-0.0425895
-0.0431413
-0.0435289
-0.0437619
-0.0438502
-0.0438035
-0.0436306
-0.0433392
-0.042936
-0.0424258
-0.0418122
-0.0410975
-0.0402831
-0.039369
-0.0383549
-0.0372401
-0.0360244
-0.0347081
-0.033295
-0.0317898
-0.0302064
-0.0285577
-0.0268818
-0.0251961
-0.023697
-0.0221011
-0.0212002
-0.0199321
-0.0193113
-0.0181467
-0.00835942
-0.00811326
-0.00826962
-0.00900791
-0.0104628
-0.0125309
-0.0149636
-0.0175168
-0.0200229
-0.0224033
-0.0246454
-0.0267665
-0.0287892
-0.0307255
-0.0325736
-0.0343206
-0.035948
-0.0374357
-0.0387661
-0.0399261
-0.0409078
-0.0417086
-0.0423305
-0.0427793
-0.0430629
-0.0431905
-0.0431713
-0.043014
-0.0427258
-0.0423138
-0.0417832
-0.0411377
-0.0403796
-0.0395105
-0.0385308
-0.0374407
-0.0362397
-0.0349288
-0.033509
-0.0319854
-0.0303643
-0.0286626
-0.0268962
-0.0251124
-0.0233376
-0.0217432
-0.020112
-0.01926
-0.017936
-0.0175262
-0.0163608
-0.00799068
-0.00789055
-0.00781526
-0.00832522
-0.00950777
-0.0113119
-0.0135383
-0.0159553
-0.0183846
-0.0207279
-0.0229551
-0.025074
-0.0271047
-0.0290608
-0.0309431
-0.0327399
-0.0344317
-0.0359961
-0.037412
-0.0386623
-0.039735
-0.0406237
-0.0413273
-0.0418486
-0.0421938
-0.0423708
-0.042388
-0.0422536
-0.0419753
-0.0415593
-0.0410113
-0.0403351
-0.0395332
-0.0386073
-0.0375578
-0.0363854
-0.0350898
-0.0336726
-0.0321353
-0.0304846
-0.028728
-0.0268856
-0.0249774
-0.0230588
-0.0211625
-0.0194532
-0.0177711
-0.0169273
-0.0155147
-0.015288
-0.0140686
-0.00770981
-0.00767966
-0.00749727
-0.00780221
-0.00868246
-0.0101598
-0.0121012
-0.0143002
-0.0165804
-0.0188323
-0.0210103
-0.0231104
-0.0251447
-0.0271237
-0.0290469
-0.0309017
-0.0326667
-0.034317
-0.035828
-0.0371787
-0.0383533
-0.0393413
-0.040138
-0.0407433
-0.0411611
-0.0413977
-0.0414604
-0.0413571
-0.0410952
-0.0406803
-0.0401181
-0.0394129
-0.0385671
-0.0375823
-0.0364591
-0.0351981
-0.0337992
-0.0322642
-0.0305951
-0.0287998
-0.0268873
-0.0248813
-0.0228059
-0.0207253
-0.0186784
-0.0168356
-0.0150768
-0.0142009
-0.0127038
-0.0126236
-0.0113032
-0.00749614
-0.00746816
-0.00732302
-0.00743284
-0.00801469
-0.00913234
-0.0107137
-0.0125994
-0.0146366
-0.0167208
-0.0187992
-0.0208549
-0.0228871
-0.0248957
-0.0268726
-0.0288
-0.0306529
-0.0324029
-0.0340223
-0.0354863
-0.0367749
-0.0378742
-0.0387756
-0.0394762
-0.0399774
-0.0402836
-0.0404011
-0.040337
-0.0400978
-0.0396889
-0.0391161
-0.0383839
-0.0374943
-0.0364491
-0.0352483
-0.0338927
-0.0323817
-0.0307176
-0.0289024
-0.026945
-0.0248562
-0.0226633
-0.0203953
-0.0181249
-0.0158995
-0.0139013
-0.0120374
-0.01111
-0.00951022
-0.00958104
-0.00810627
-0.00733635
-0.00728976
-0.00721908
-0.0071874
-0.00752447
-0.00827957
-0.0094365
-0.010905
-0.0125839
-0.0143991
-0.0163065
-0.0182802
-0.0203011
-0.0223489
-0.024399
-0.026422
-0.0283855
-0.0302565
-0.0320031
-0.033597
-0.0350147
-0.0362386
-0.0372571
-0.0380645
-0.0386595
-0.0390451
-0.039226
-0.0392086
-0.0389988
-0.0386016
-0.0380221
-0.0372649
-0.036332
-0.035225
-0.0339436
-0.0324879
-0.0308572
-0.0290534
-0.0270786
-0.0249429
-0.0226584
-0.0202566
-0.0177717
-0.0152863
-0.0128575
-0.0106809
-0.00868421
-0.00768592
-0.0059319
-0.00620562
-0.00450789
-0.00722311
-0.00717238
-0.00712182
-0.00706135
-0.00721874
-0.0076348
-0.00832326
-0.00926975
-0.0104589
-0.0118829
-0.0135286
-0.0153688
-0.017362
-0.0194579
-0.0216045
-0.023753
-0.0258581
-0.0278788
-0.0297783
-0.0315242
-0.0330896
-0.034454
-0.0356033
-0.0365293
-0.0372288
-0.0377031
-0.0379556
-0.0379917
-0.0378173
-0.0374381
-0.0368563
-0.0360763
-0.0351011
-0.0339319
-0.0325677
-0.0310082
-0.0292515
-0.0272997
-0.0251546
-0.022827
-0.0203307
-0.0177013
-0.0149787
-0.0122554
-0.0095995
-0.00721974
-0.00506381
-0.00396634
-0.00199141
-0.00253633
-0.000474372
-0.00714987
-0.00710401
-0.00705176
-0.00703644
-0.00707871
-0.00720585
-0.00740565
-0.00772817
-0.00828684
-0.00918605
-0.0104668
-0.0121104
-0.014051
-0.0161998
-0.0184675
-0.020776
-0.0230605
-0.0252676
-0.0273525
-0.0292781
-0.0310145
-0.0325385
-0.0338342
-0.0348918
-0.0357069
-0.0362793
-0.0366118
-0.0367093
-0.0365769
-0.0362196
-0.0356394
-0.0348404
-0.0338254
-0.0325952
-0.0311483
-0.0294835
-0.0275983
-0.0254942
-0.0231725
-0.020645
-0.0179266
-0.0150571
-0.0120817
-0.00910276
-0.00619991
-0.00359313
-0.00124947
-1.26011e-06
0.00226135
0.00144145
0.0041719
-0.00709479
-0.00707304
-0.00704807
-0.00708021
-0.00707658
-0.00697056
-0.0066791
-0.00629288
-0.00609375
-0.00634142
-0.00715371
-0.00852768
-0.0103794
-0.0125774
-0.0149859
-0.0174882
-0.0199918
-0.0224253
-0.0247329
-0.0268708
-0.0288053
-0.0305114
-0.0319715
-0.0331753
-0.0341176
-0.0347981
-0.035219
-0.035385
-0.0353008
-0.0349711
-0.0343978
-0.0335845
-0.0325335
-0.0312457
-0.029719
-0.0279518
-0.0259405
-0.0236861
-0.0211894
-0.0184625
-0.0155214
-0.0124089
-0.00917489
-0.00592905
-0.00276084
0.000101666
0.00267136
0.00414793
0.00674286
0.00581937
0.00983162
-0.00701528
-0.00706195
-0.00705501
-0.00714934
-0.00714572
-0.00683499
-0.00605621
-0.00491401
-0.00387555
-0.00338007
-0.00363986
-0.00467631
-0.00639787
-0.00863223
-0.0111917
-0.0139139
-0.0166717
-0.0193698
-0.0219369
-0.0243205
-0.0264817
-0.0283933
-0.0300369
-0.0314022
-0.0324842
-0.0332828
-0.0338005
-0.0340419
-0.034012
-0.0337162
-0.0331582
-0.0323382
-0.0312579
-0.0299193
-0.0283204
-0.0264595
-0.0243323
-0.0219392
-0.0192803
-0.0163676
-0.0132173
-0.00987344
-0.00638759
-0.00287228
0.000578122
0.00373388
0.00659014
0.00843167
0.0114408
0.0107589
0.0171284
-0.00688996
-0.00714959
-0.00723408
-0.00734611
-0.00723173
-0.00668711
-0.005414
-0.00351936
-0.00162512
-0.00036224
-2.9973e-05
-0.000683687
-0.0022381
-0.00448791
-0.00719437
-0.0101466
-0.0131791
-0.0161679
-0.0190227
-0.0216786
-0.0240903
-0.0262278
-0.0280718
-0.0296123
-0.0308452
-0.0317712
-0.0323938
-0.0327186
-0.0327515
-0.0324986
-0.031963
-0.0311449
-0.0300453
-0.0286669
-0.0270084
-0.0250693
-0.0228455
-0.0203371
-0.0175432
-0.014475
-0.0111471
-0.00760198
-0.00388793
-0.000111573
0.00363931
0.00715069
0.0104055
0.0128493
0.0164632
0.0166489
0.0268345
-0.00644954
-0.00694764
-0.00681903
-0.00712243
-0.0069701
-0.00623527
-0.00449275
-0.00192982
0.000714384
0.00267072
0.00355404
0.00326927
0.00188849
-0.000360473
-0.00319703
-0.00636831
-0.00967186
-0.0129545
-0.016104
-0.0190415
-0.0217135
-0.0240861
-0.0261388
-0.0278617
-0.0292517
-0.0303107
-0.0310434
-0.0314567
-0.0315572
-0.0313521
-0.0308472
-0.0300472
-0.0289479
-0.0275491
-0.0258505
-0.0238565
-0.0215659
-0.0189784
-0.016092
-0.0129166
-0.00946326
-0.00576753
-0.00186697
0.00215103
0.00622453
0.0101935
0.0140641
0.0174956
0.0221998
0.0246097
0.0401659
-0.00578546
-0.00762029
-0.00740145
-0.00752469
-0.00699308
-0.0056612
-0.00330609
-0.000141097
0.00310224
0.00558851
0.00689767
0.00689911
0.00565636
0.00341103
0.00046843
-0.00289085
-0.00643474
-0.00998386
-0.013405
-0.0166055
-0.0195229
-0.0221191
-0.0243715
-0.0262704
-0.0278128
-0.029002
-0.0298436
-0.0303465
-0.0305186
-0.0303688
-0.0299035
-0.0291288
-0.0280456
-0.0266505
-0.0249385
-0.0229207
-0.0205982
-0.0179721
-0.0150405
-0.0118108
-0.0082899
-0.00450011
-0.000459132
0.00378571
0.0082233
0.012795
0.0176317
0.022708
0.0297183
0.0368618
0.0611896
-0.00513162
-0.00664572
-0.00633283
-0.0060941
-0.00557153
-0.00403382
-0.00144408
0.00199398
0.00546311
0.0082546
0.00976762
0.0099026
0.00872074
0.00646708
0.00344803
-4.90604e-05
-0.00377359
-0.00752908
-0.0111652
-0.0145787
-0.0176983
-0.0204819
-0.0229043
-0.0249556
-0.0266321
-0.0279378
-0.0288784
-0.0294642
-0.0297032
-0.0296058
-0.0291778
-0.0284264
-0.0273558
-0.0259736
-0.0242856
-0.0222825
-0.0199637
-0.0173363
-0.0144024
-0.011165
-0.00762469
-0.00379107
0.00035149
0.00481674
0.00970339
0.0150982
0.0215293
0.0294334
0.0418995
0.0594674
0.100256
0.00161231
-0.00681734
-0.00847033
-0.00870204
-0.00734978
-0.00483014
-0.00103473
0.00311344
0.00713576
0.010067
0.0117079
0.0118639
0.0106734
0.00838878
0.00531382
0.00173298
-0.00209473
-0.0059692
-0.00973177
-0.0132765
-0.0165241
-0.0194311
-0.0219659
-0.0241217
-0.0258915
-0.0272842
-0.0283015
-0.028959
-0.0292591
-0.0292192
-0.0288392
-0.0281366
-0.0271061
-0.0257638
-0.0240956
-0.0221163
-0.0198045
-0.0171841
-0.0142374
-0.0110061
-0.00745243
-0.00360314
0.00065403
0.00534851
0.0108706
0.0175492
0.0269375
0.0406519
0.064959
0.104443
0.173066
-0.0160803
-0.00781496
-0.00634994
-0.00678017
-0.00541802
-0.0026596
0.00122188
0.00530699
0.00893993
0.0115633
0.0128829
0.0128577
0.0115688
0.00920918
0.00607494
0.00245365
-0.0014031
-0.00530425
-0.00909673
-0.0126766
-0.0159634
-0.0189124
-0.0214871
-0.0236756
-0.0254689
-0.0268814
-0.0279148
-0.0285891
-0.0289037
-0.0288789
-0.0285098
-0.0278172
-0.0267902
-0.0254511
-0.0237826
-0.0218109
-0.0195124
-0.0169231
-0.0140155
-0.0108361
-0.00733477
-0.00353573
0.000720968
0.00558192
0.0117107
0.0201479
0.0338629
0.0576404
0.101942
0.175846
0.282015
)
;

boundaryField
{
    movingWall