/*--------------------------------*- C++ -*----------------------------------*\
| =========                 |                                                 |
| \\      /  F ield         | OpenFOAM: The Open Source CFD Toolbox           |
|  \\    /   O peration     | Version:  2312                                  |
|   \\  /    A nd           | Website:  www.openfoam.com                      |
|    \\/     M anipulation  |                                                 |
\*---------------------------------------------------------------------------*/
FoamFile
{
    version     2.0;
    format      ascii;
    arch        "LSB;label=32;scalar=64";
    class       volScalarField;
    location    "50";
    object      p;
}
// * * * * * * * * * * * * * * * * * * * * * * * * * * * * * * * * * * * * * //

dimensions      [0 2 -2 0 0 0 0];

internalField   nonuniform List<scalar> 
2500
(
-7.10513e-09
3.52269e-05
2.41004e-05
-2.38015e-05
-0.000101976
-0.000190415
-0.000273393
-0.000345129
-0.000407844
-0.000469945
-0.000542551
-0.000636724
-0.000759935
-0.000923489
-0.00115632
-0.00149377
-0.00195496
-0.00251185
-0.00302457
-0.00336557
-0.00352272
-0.00354339
-0.00345986
-0.00324535
-0.00281636
-0.00207033
-0.000922041
0.000677752
0.00273592
0.00517887
0.00784032
0.0104527
0.0126548
0.01403
0.0141946
0.0129474
0.0103785
0.00688879
0.00318431
2.63959e-05
-0.00213645
-0.00324567
-0.00359116
-0.00363702
-0.00359672
-0.00347783
-0.00329727
-0.00312911
-0.00302025
-0.0029568
-2.56379e-05
1.14559e-05
-5.7662e-06
-5.6518e-05
-0.00013309
-0.000216116
-0.000291747
-0.000355654
-0.000411076
-0.000465677
-0.000528117
-0.000608836
-0.000725641
-0.000899076
-0.00109916
-0.00128618
-0.00155885
-0.00201205
-0.00259237
-0.00313045
-0.00353153
-0.00378467
-0.00389214
-0.00382052
-0.003494
-0.00281727
-0.00170989
-0.000140416
0.0018638
0.00423378
0.0068178
0.00936233
0.0115161
0.0128619
0.0130125
0.0117779
0.00917525
0.00555571
0.0017813
-0.00131593
-0.00329419
-0.0041887
-0.00424484
-0.00394921
-0.00358314
-0.00327868
-0.00307703
-0.00296919
-0.00291845
-0.00286984
-3.76117e-05
1.09349e-05
-1.67368e-05
-8.147e-05
-0.000168661
-0.000253017
-0.000320886
-0.000371876
-0.000411901
-0.000452172
-0.000505806
-0.000580727
-0.000655847
-0.000731941
-0.000946722
-0.00136421
-0.00194801
-0.00264472
-0.00340271
-0.00413648
-0.00477463
-0.0052707
-0.00558592
-0.00566971
-0.00545247
-0.00485793
-0.00383231
-0.00236963
-0.000487479
0.00174536
0.00419962
0.00665624
0.00879637
0.0102235
0.0105471
0.00953814
0.00719805
0.00381703
0.000127847
-0.00296095
-0.00488031
-0.00557133
-0.00539439
-0.00479297
-0.00410733
-0.00354024
-0.0031652
-0.00296574
-0.002887
-0.00281499
-4.24775e-05
1.44696e-05
-3.70354e-05
-0.000127422
-0.000230333
-0.000314913
-0.00037079
-0.000401917
-0.000423428
-0.000449563
-0.000481271
-0.000529969
-0.000675382
-0.000977692
-0.00147874
-0.00221273
-0.00315089
-0.00419551
-0.0052492
-0.00624017
-0.0071095
-0.00780974
-0.00829725
-0.0085245
-0.00843817
-0.00798714
-0.00714015
-0.00590115
-0.00426645
-0.00228062
-4.54052e-05
0.00226597
0.00439235
0.00598875
0.00668106
0.00619802
0.00449217
0.00177085
-0.00137588
-0.00410757
-0.00579935
-0.00635443
-0.00610975
-0.00544375
-0.00464327
-0.00390512
-0.00337524
-0.00307025
-0.00294414
-0.00285768
-2.81957e-05
2.50859e-05
-6.66951e-05
-0.000193874
-0.000313884
-0.000394793
-0.000434173
-0.000446012
-0.000450276
-0.000470184
-0.000558399
-0.000791618
-0.00123646
-0.00192964
-0.00286627
-0.00401411
-0.00531419
-0.00667024
-0.00798433
-0.00918256
-0.0102138
-0.0110408
-0.0116328
-0.0119606
-0.011997
-0.0117199
-0.0111108
-0.0101403
-0.00881468
-0.00716248
-0.00524727
-0.00318496
-0.00116014
0.00056521
0.00167524
0.00188952
0.00109434
-0.000609903
-0.00280364
-0.00483419
-0.0061141
-0.006528
-0.00628431
-0.00565797
-0.00492239
-0.00419409
-0.00362614
-0.00326568
-0.00309772
-0.00300599
2.79632e-05
5.27624e-05
-9.75603e-05
-0.000269816
-0.000404899
-0.000481722
-0.000502854
-0.00050697
-0.000539708
-0.000680205
-0.00102134
-0.00163475
-0.00254017
-0.00371868
-0.00511739
-0.0066554
-0.00824418
-0.00979722
-0.01124
-0.0125175
-0.013593
-0.0144437
-0.0150555
-0.0154203
-0.0155354
-0.0153964
-0.0149839
-0.014264
-0.0132456
-0.0119493
-0.0104119
-0.00869911
-0.00692081
-0.00524316
-0.00388292
-0.00306319
-0.0029271
-0.00346492
-0.00445418
-0.00547444
-0.00611931
-0.00624748
-0.00595494
-0.0054603
-0.00487651
-0.00428549
-0.00379652
-0.0034626
-0.00329083
-0.00320944
0.000159981
0.000122607
-0.000101619
-0.000321951
-0.000474866
-0.000540597
-0.000571283
-0.00063394
-0.000831768
-0.00128001
-0.00205403
-0.00316858
-0.00458486
-0.00622064
-0.00797874
-0.00976226
-0.0114866
-0.0130857
-0.0145137
-0.0157421
-0.0167558
-0.0175492
-0.0181217
-0.0184769
-0.0186213
-0.018557
-0.0182723
-0.0177488
-0.0169895
-0.0160074
-0.0148241
-0.0134757
-0.0120221
-0.0105547
-0.00919291
-0.00806103
-0.00725299
-0.0067866
-0.00658482
-0.00646391
-0.00625039
-0.00589203
-0.00543966
-0.005
-0.00456938
-0.00417812
-0.0038415
-0.00359634
-0.00346215
-0.00340728
0.000413955
0.000288773
-1.46941e-05
-0.000275293
-0.000447846
-0.000541902
-0.000657747
-0.000918741
-0.00146375
-0.00238045
-0.0036837
-0.00531247
-0.00715967
-0.00910824
-0.0110518
-0.0129062
-0.0146124
-0.016135
-0.0174584
-0.0185773
-0.0194924
-0.0202068
-0.0207265
-0.0210595
-0.0212124
-0.0211874
-0.0209829
-0.0205996
-0.0200391
-0.0193072
-0.0184155
-0.0173824
-0.016236
-0.015017
-0.0137792
-0.0125772
-0.0114354
-0.0103339
-0.00922932
-0.00809072
-0.00693757
-0.00586402
-0.00501176
-0.00445771
-0.00416873
-0.00394592
-0.00378282
-0.00366287
-0.00359297
-0.00356815
0.000853464
0.000636744
0.000257152
-5.2986e-05
-0.000264367
-0.000470677
-0.000812812
-0.00145315
-0.00249859
-0.00396755
-0.00578605
-0.00782399
-0.00994473
-0.0120312
-0.0139986
-0.0157951
-0.0173962
-0.0187934
-0.019988
-0.0209876
-0.0218024
-0.0224421
-0.0229159
-0.0232315
-0.0233946
-0.0234082
-0.0232746
-0.0229972
-0.02258
-0.0220279
-0.0213471
-0.0205469
-0.0196402
-0.0186425
-0.0175675
-0.0164169
-0.0151699
-0.0137795
-0.0121815
-0.0103585
-0.00839521
-0.00651857
-0.005019
-0.00409857
-0.00377937
-0.00370883
-0.00368895
-0.00368817
-0.0036898
-0.00369017
0.00154467
0.0012335
0.000813479
0.000442531
9.68862e-05
-0.000361683
-0.00111193
-0.00228593
-0.00391167
-0.00591166
-0.00813637
-0.0104303
-0.0126643
-0.0147513
-0.0166447
-0.0183268
-0.0197964
-0.0210633
-0.0221408
-0.0230425
-0.0237808
-0.0243661
-0.0248073
-0.0251117
-0.0252843
-0.0253294
-0.0252515
-0.0250553
-0.0247449
-0.024324
-0.0237962
-0.0231648
-0.0224332
-0.0216028
-0.020668
-0.0196085
-0.0183808
-0.0169171
-0.0151409
-0.0130043
-0.0105497
-0.0079925
-0.00574421
-0.0042054
-0.00349342
-0.00359551
-0.00363729
-0.00372034
-0.00377869
-0.00378907
0.00248581
0.00210993
0.00166258
0.00116601
0.000565262
-0.000316211
-0.00162802
-0.00341495
-0.00560518
-0.00803235
-0.0105204
-0.0129266
-0.0151582
-0.0171709
-0.0189525
-0.0205104
-0.0218611
-0.0230233
-0.0240137
-0.0248463
-0.0255323
-0.026081
-0.0265003
-0.0267967
-0.0269754
-0.0270416
-0.0270017
-0.0268628
-0.0266278
-0.0262991
-0.0258784
-0.0253661
-0.0247601
-0.0240537
-0.0232319
-0.0222657
-0.0211064
-0.0196832
-0.0179115
-0.0157196
-0.0130953
-0.0101588
-0.00726778
-0.00498394
-0.00369063
-0.00337749
-0.00371088
-0.00377589
-0.00387645
-0.00388593
0.00359393
0.00318842
0.00266931
0.00196518
0.00097377
-0.000463423
-0.0024076
-0.00479789
-0.00745437
-0.0101727
-0.0127914
-0.0152073
-0.0173746
-0.0192869
-0.0209594
-0.0224155
-0.0236788
-0.024769
-0.0257015
-0.0264885
-0.0271397
-0.0276635
-0.0280671
-0.0283572
-0.0285398
-0.0286215
-0.0286089
-0.0285082
-0.0283232
-0.0280562
-0.0277074
-0.0272748
-0.0267532
-0.0261321
-0.0253933
-0.0245066
-0.0234258
-0.0220863
-0.020407
-0.0183042
-0.0157245
-0.0126982
-0.00944409
-0.00647162
-0.00440243
-0.00345402
-0.00400231
-0.0039062
-0.00400908
-0.00401804
0.00467513
0.00426434
0.00361841
0.00261391
0.00113384
-0.000907529
-0.00346955
-0.00636656
-0.0093519
-0.01223
-0.0148795
-0.0172471
-0.0193294
-0.0211493
-0.0227379
-0.0241239
-0.0253306
-0.0263749
-0.0272699
-0.0280257
-0.0286512
-0.0291545
-0.0295433
-0.0298249
-0.0300065
-0.0300955
-0.0300988
-0.0300223
-0.0298704
-0.029645
-0.0293456
-0.0289685
-0.0285061
-0.0279456
-0.0272673
-0.0264424
-0.0254307
-0.0241779
-0.0226151
-0.0206606
-0.0182372
-0.0153119
-0.0119668
-0.00854417
-0.00572409
-0.00409936
-0.00358313
-0.00428932
-0.00415437
-0.00420701
0.00549079
0.00503573
0.00423941
0.00288969
0.000906303
-0.00171027
-0.00479258
-0.00805059
-0.0112245
-0.0141558
-0.0167732
-0.019069
-0.0210727
-0.0228235
-0.0243566
-0.0256995
-0.0268714
-0.0278863
-0.0287549
-0.0294864
-0.0300895
-0.030573
-0.0309454
-0.0312151
-0.0313902
-0.0314784
-0.0314876
-0.0314238
-0.0312912
-0.0310918
-0.030825
-0.0304862
-0.0300666
-0.029552
-0.0289222
-0.0281493
-0.0271977
-0.0260224
-0.024568
-0.0227662
-0.0205365
-0.017807
-0.0145679
-0.0109797
-0.00755932
-0.00504145
-0.0036498
-0.00490623
-0.0043434
-0.00449443
0.00581289
0.00531486
0.00435137
0.00266287
0.000224675
-0.002872
-0.00632469
-0.00978941
-0.0130312
-0.0159408
-0.0184935
-0.0207169
-0.0226598
-0.024365
-0.0258652
-0.0271828
-0.0283328
-0.0293266
-0.0301736
-0.0308832
-0.0314647
-0.0319277
-0.0322816
-0.032536
-0.0326998
-0.0327816
-0.0327891
-0.0327287
-0.0326049
-0.03242
-0.0321731
-0.0318595
-0.03147
-0.0309902
-0.0303997
-0.0296721
-0.0287747
-0.0276689
-0.0263097
-0.0246427
-0.0225987
-0.0200932
-0.0170585
-0.0135202
-0.00977393
-0.00661467
-0.00492814
-0.00441896
-0.00491449
-0.00477461
0.00555902
0.00501388
0.00388665
0.00190474
-0.000903806
-0.00433906
-0.00799964
-0.0115353
-0.0147547
-0.0175971
-0.0200731
-0.0222345
-0.0241347
-0.0258124
-0.027294
-0.0285961
-0.0297302
-0.030706
-0.0315328
-0.0322205
-0.0327794
-0.0332203
-0.0335537
-0.0337898
-0.0339385
-0.0340087
-0.0340085
-0.0339446
-0.0338218
-0.0336426
-0.0334064
-0.0331088
-0.0327408
-0.032288
-0.0317305
-0.0310427
-0.0301943
-0.0291509
-0.027875
-0.0263236
-0.0244417
-0.0221517
-0.0193564
-0.0160011
-0.0122081
-0.0085848
-0.00586352
-0.00349596
-0.00623037
-0.00510497
0.00471682
0.00413566
0.00286686
0.000660071
-0.00240269
-0.00602373
-0.00974906
-0.0132522
-0.0163909
-0.0191424
-0.0215435
-0.0236556
-0.0255269
-0.0271883
-0.0286586
-0.0299493
-0.0310692
-0.0320273
-0.0328334
-0.0334983
-0.0340337
-0.0344511
-0.034762
-0.0349776
-0.0351081
-0.0351628
-0.0351504
-0.0350776
-0.0349495
-0.0347691
-0.0345362
-0.0342469
-0.033893
-0.0334609
-0.0329314
-0.0322798
-0.031477
-0.030491
-0.0292888
-0.027836
-0.0260911
-0.0239934
-0.0214478
-0.0183482
-0.014677
-0.0106799
-0.00702414
-0.00488325
-0.00662521
-0.00555341
0.00335963
0.00276007
0.00139195
-0.000957901
-0.00415392
-0.00782797
-0.0115104
-0.0149131
-0.0179396
-0.0205933
-0.0229271
-0.0250007
-0.0268522
-0.0285029
-0.0299647
-0.0312447
-0.0323501
-0.0332899
-0.0340745
-0.0347159
-0.0352269
-0.0356199
-0.0359073
-0.0361006
-0.0362107
-0.0362474
-0.0362192
-0.0361335
-0.0359956
-0.0358087
-0.0355732
-0.035286
-0.0349397
-0.034522
-0.0340148
-0.0333946
-0.0326335
-0.0317009
-0.0305659
-0.0291991
-0.0275696
-0.0256347
-0.0233193
-0.0205008
-0.0170681
-0.0130687
-0.0091955
-0.00683967
-0.00528491
-0.00631938
0.00163354
0.00103169
-0.000390056
-0.00280438
-0.00603123
-0.00966032
-0.0132308
-0.0164974
-0.0194
-0.0219599
-0.0242361
-0.0262793
-0.0281159
-0.0297582
-0.0312117
-0.0324804
-0.0335706
-0.0344914
-0.0352541
-0.0358719
-0.0363582
-0.0367265
-0.0369896
-0.0371597
-0.0372479
-0.0372644
-0.037218
-0.0371162
-0.0369648
-0.0367673
-0.0365247
-0.0362345
-0.0358905
-0.0354816
-0.0349912
-0.0343971
-0.0336726
-0.0327879
-0.0317135
-0.0304225
-0.0288913
-0.0270917
-0.0249715
-0.0224255
-0.0193161
-0.0156214
-0.0117395
-0.00821456
-0.00425774
-0.00841217
-0.000294324
-0.000883825
-0.00232122
-0.0047376
-0.00792154
-0.0114444
-0.0148678
-0.0179874
-0.0207686
-0.0232449
-0.0254728
-0.0274913
-0.0293157
-0.0309502
-0.0323951
-0.0336519
-0.0347266
-0.0356285
-0.0363697
-0.0369642
-0.0374263
-0.0377701
-0.038009
-0.0381555
-0.0382211
-0.038216
-0.0381496
-0.0380296
-0.0378619
-0.0376505
-0.0373969
-0.0370995
-0.036753
-0.0363475
-0.0358682
-0.0352944
-0.0346007
-0.0337581
-0.0327373
-0.0315127
-0.0300636
-0.0283716
-0.0264049
-0.0240934
-0.0213239
-0.0180222
-0.014255
-0.0102906
-0.0074467
-0.0116304
-0.00226721
-0.00283304
-0.00426001
-0.00663663
-0.00973335
-0.0131206
-0.0163881
-0.0193664
-0.0220384
-0.0244435
-0.0266318
-0.0286302
-0.0304444
-0.0320716
-0.0335078
-0.0347532
-0.035813
-0.036697
-0.0374178
-0.0379902
-0.0384292
-0.0387495
-0.0389649
-0.039088
-0.0391307
-0.0391036
-0.0390162
-0.0388763
-0.0386903
-0.0384625
-0.038195
-0.0378867
-0.0375334
-0.0371265
-0.0366526
-0.0360928
-0.0354229
-0.0346153
-0.0336409
-0.0324739
-0.0310944
-0.0294879
-0.0276357
-0.025494
-0.0229739
-0.0199693
-0.0165153
-0.0133634
-0.0130482
-0.0140953
-0.0041532
-0.00468991
-0.0060929
-0.00840761
-0.0113978
-0.0146443
-0.0177651
-0.0206185
-0.0231982
-0.0255456
-0.0277023
-0.0296849
-0.0314912
-0.0331123
-0.0345412
-0.0357765
-0.0368234
-0.0376914
-0.0383939
-0.0389462
-0.039364
-0.0396623
-0.0398553
-0.0399561
-0.0399765
-0.0399274
-0.0398184
-0.0396578
-0.0394521
-0.0392061
-0.0389221
-0.0386
-0.0382363
-0.0378236
-0.0373498
-0.0367978
-0.0361451
-0.0353649
-0.0344289
-0.0333108
-0.0319904
-0.0304536
-0.0286869
-0.0266592
-0.0242987
-0.0214922
-0.0182841
-0.0154749
-0.0151568
-0.0141782
-0.00585286
-0.00636367
-0.00773744
-0.00998291
-0.0128655
-0.0159826
-0.0189771
-0.0217277
-0.0242342
-0.0265372
-0.0286705
-0.0306422
-0.0324435
-0.0340609
-0.0354848
-0.0367129
-0.0377497
-0.0386048
-0.039292
-0.0398271
-0.0402261
-0.0405047
-0.0406774
-0.0407574
-0.0407567
-0.0406864
-0.0405562
-0.0403746
-0.0401485
-0.0398828
-0.0395806
-0.0392422
-0.0388648
-0.0384421
-0.0379634
-0.0374131
-0.0367703
-0.0360098
-0.035104
-0.0340266
-0.0327561
-0.0312767
-0.0295749
-0.0276268
-0.0253849
-0.0227375
-0.0196423
-0.0162372
-0.0131967
-0.0104529
-0.00729842
-0.00779668
-0.00913981
-0.0113184
-0.0141029
-0.0171107
-0.0200059
-0.0226784
-0.0251312
-0.0274031
-0.0295209
-0.031487
-0.0332871
-0.0349042
-0.0363269
-0.0375518
-0.0385826
-0.0394289
-0.0401047
-0.0406261
-0.0410098
-0.0412717
-0.0414267
-0.0414882
-0.0414683
-0.0413781
-0.0412277
-0.0410255
-0.0407788
-0.0404928
-0.040171
-0.0398142
-0.0394203
-0.0389841
-0.0384959
-0.0379417
-0.0373021
-0.0365536
-0.0356698
-0.034625
-0.0333966
-0.0319665
-0.0303212
-0.0284431
-0.0263098
-0.0238162
-0.0207642
-0.0166443
-0.0115033
-0.00760003
-0.00846333
-0.00894809
-0.0102701
-0.0123892
-0.0150888
-0.01801
-0.0208354
-0.0234555
-0.025874
-0.0281277
-0.0302381
-0.0322042
-0.0340074
-0.0356286
-0.0370548
-0.0382814
-0.0393114
-0.0401539
-0.040823
-0.0413352
-0.0417076
-0.0419566
-0.0420972
-0.0421431
-0.0421066
-0.0419988
-0.0418297
-0.0416081
-0.0413412
-0.0410347
-0.0406923
-0.0403154
-0.0399027
-0.0394495
-0.0389474
-0.0383837
-0.0377406
-0.0369963
-0.0361261
-0.0351053
-0.0339106
-0.0325228
-0.03093
-0.0291215
-0.0270928
-0.0247394
-0.0217723
-0.0173908
-0.0116824
-0.00752603
-0.00934577
-0.00980538
-0.0111175
-0.013188
-0.0158131
-0.0186689
-0.0214527
-0.0240454
-0.026449
-0.0286966
-0.0308067
-0.0327784
-0.0345891
-0.0362192
-0.0376544
-0.0388885
-0.0399235
-0.0407682
-0.0414364
-0.0419448
-0.0423109
-0.0425513
-0.0426817
-0.0427156
-0.0426657
-0.042543
-0.0423576
-0.0421181
-0.0418321
-0.0415054
-0.0411421
-0.040744
-0.0403102
-0.0398371
-0.039317
-0.0387385
-0.0380855
-0.0373379
-0.0364731
-0.0354675
-0.034299
-0.0329484
-0.0314077
-0.0296705
-0.0277424
-0.025524
-0.0227326
-0.0185266
-0.0131375
-0.0093525
-0.00996296
-0.0103815
-0.0116786
-0.0137129
-0.0162828
-0.0190912
-0.0218508
-0.0244372
-0.0268444
-0.029097
-0.0312139
-0.0331941
-0.0350167
-0.0366613
-0.0381114
-0.0393595
-0.040406
-0.0412595
-0.0419335
-0.0424443
-0.0428098
-0.0430469
-0.0431716
-0.043198
-0.0431384
-0.0430042
-0.0428052
-0.0425502
-0.0422465
-0.0419004
-0.0415161
-0.0410958
-0.0406392
-0.0401431
-0.039601
-0.0390025
-0.0383329
-0.0375742
-0.0367057
-0.035706
-0.0345546
-0.0332348
-0.0317434
-0.0300767
-0.0282482
-0.026168
-0.0236271
-0.0198811
-0.0152652
-0.0118802
-0.010352
-0.010711
-0.011973
-0.0139695
-0.0164996
-0.0192796
-0.0220323
-0.024627
-0.0270487
-0.0293159
-0.0314462
-0.0334382
-0.0352767
-0.0369403
-0.0384109
-0.0396796
-0.0407436
-0.0416143
-0.0423015
-0.0428219
-0.0431933
-0.0434332
-0.0435577
-0.0435812
-0.0435167
-0.0433748
-0.0431655
-0.0428974
-0.0425781
-0.0422136
-0.0418086
-0.0413655
-0.0408843
-0.0403626
-0.0397946
-0.0391708
-0.0384783
-0.0377007
-0.0368197
-0.0358162
-0.0346729
-0.0333763
-0.0319287
-0.0303274
-0.0285949
-0.0266577
-0.0244033
-0.0212008
-0.0174354
-0.0145198
-0.0105631
-0.0108395
-0.012035
-0.0139772
-0.0164703
-0.0192352
-0.0219957
-0.0246103
-0.0270538
-0.0293409
-0.0314894
-0.0334993
-0.0353573
-0.0370431
-0.0385388
-0.0398333
-0.0409247
-0.0418191
-0.0425274
-0.0430651
-0.04345
-0.0436997
-0.0438302
-0.0438559
-0.0437915
-0.0436462
-0.0434303
-0.0431521
-0.0428193
-0.0424379
-0.0420126
-0.0415461
-0.0410387
-0.0404885
-0.0398904
-0.0392359
-0.0385137
-0.037709
-0.0368059
-0.0357877
-0.0346413
-0.0333573
-0.0319437
-0.0303978
-0.0287547
-0.0269623
-0.024989
-0.0223156
-0.0193418
-0.0168399
-0.0106452
-0.0108104
-0.0119013
-0.0137633
-0.0162087
-0.0189608
-0.0217376
-0.024381
-0.0268529
-0.0291641
-0.0313335
-0.0333646
-0.0352454
-0.0369573
-0.0384828
-0.0398097
-0.0409343
-0.0418605
-0.0425982
-0.0431619
-0.0435686
-0.0438356
-0.0439794
-0.0440147
-0.0439549
-0.0438106
-0.0435917
-0.0433066
-0.0429626
-0.0425657
-0.0421205
-0.0416299
-0.0410945
-0.0405127
-0.0398803
-0.0391895
-0.0384305
-0.0375902
-0.0366555
-0.035612
-0.0344504
-0.0331657
-0.0317734
-0.0302653
-0.0287014
-0.0270458
-0.025321
-0.0230991
-0.020777
-0.0186635
-0.0106255
-0.0106507
-0.0116029
-0.0133568
-0.0157344
-0.018464
-0.021257
-0.0239344
-0.0264405
-0.0287801
-0.0309725
-0.0330256
-0.0349308
-0.0366716
-0.0382309
-0.0395957
-0.0407603
-0.0417265
-0.0425023
-0.0431009
-0.0435383
-0.0438312
-0.043996
-0.0440473
-0.0439983
-0.0438597
-0.0436421
-0.0433531
-0.0430001
-0.042589
-0.0421243
-0.0416088
-0.0410434
-0.0404267
-0.0397549
-0.0390216
-0.038218
-0.0373329
-0.0363558
-0.0352749
-0.0340848
-0.0327831
-0.0313978
-0.0299011
-0.0284106
-0.0268619
-0.0253495
-0.0234986
-0.0216781
-0.0198894
-0.0104984
-0.0103649
-0.0111645
-0.0127865
-0.0150701
-0.0177579
-0.0205582
-0.0232691
-0.0258125
-0.028184
-0.0304009
-0.0324758
-0.0344052
-0.0361759
-0.0377716
-0.0391788
-0.0403899
-0.0414042
-0.0422274
-0.0428707
-0.0433485
-0.0436765
-0.0438707
-0.0439454
-0.0439138
-0.0437873
-0.0435744
-0.0432846
-0.0429248
-0.0425006
-0.0420163
-0.0414748
-0.0408769
-0.0402215
-0.0395054
-0.0387229
-0.0378664
-0.0369267
-0.0358956
-0.0347643
-0.0335313
-0.0321978
-0.0307999
-0.0292843
-0.0278656
-0.0263677
-0.0250376
-0.0234654
-0.0220304
-0.0205064
-0.010234
-0.00994818
-0.0106122
-0.012084
-0.0142425
-0.0168616
-0.0196516
-0.0223881
-0.0249675
-0.0273715
-0.0296136
-0.0317099
-0.0336626
-0.0354629
-0.0370967
-0.03855
-0.0398135
-0.0408837
-0.0417636
-0.0424616
-0.0429899
-0.0433629
-0.0435955
-0.0437018
-0.0436946
-0.0435848
-0.0433821
-0.0430951
-0.0427306
-0.0422942
-0.0417902
-0.041221
-0.0405878
-0.0398895
-0.0391233
-0.0382842
-0.037366
-0.036361
-0.0352633
-0.0340671
-0.0327755
-0.0313939
-0.0299514
-0.0284089
-0.0270395
-0.0255279
-0.0243668
-0.0229843
-0.021862
-0.0205183
-0.0098257
-0.00942895
-0.00998789
-0.011288
-0.0132853
-0.0158024
-0.0185549
-0.0212993
-0.0239059
-0.0263387
-0.0286046
-0.0307209
-0.0326958
-0.0345253
-0.0361983
-0.0377012
-0.0390228
-0.0401567
-0.0411025
-0.0418654
-0.0424549
-0.0428833
-0.0431642
-0.0433109
-0.0433355
-0.0432492
-0.0430615
-0.0427807
-0.0424137
-0.0419659
-0.0414414
-0.0408428
-0.0401709
-0.0394249
-0.0386024
-0.0376989
-0.0367094
-0.0356278
-0.0344504
-0.0331744
-0.0318065
-0.0303545
-0.0288455
-0.0272713
-0.0258886
-0.0243355
-0.0233276
-0.0220402
-0.0211815
-0.0199528
-0.00932376
-0.00891502
-0.0093562
-0.0104469
-0.0122434
-0.0146182
-0.0172938
-0.0200155
-0.0226306
-0.0250824
-0.0273677
-0.0295021
-0.0314982
-0.0333571
-0.0350711
-0.0366271
-0.0380125
-0.0392177
-0.0402387
-0.0410768
-0.0417383
-0.0422331
-0.0425726
-0.042769
-0.0428338
-0.0427779
-0.0426104
-0.0423396
-0.0419723
-0.041514
-0.0409684
-0.0403381
-0.0396239
-0.0388251
-0.0379394
-0.036963
-0.0358919
-0.0347215
-0.0334501
-0.0320774
-0.0306132
-0.0290671
-0.0274737
-0.0258442
-0.0243954
-0.0228019
-0.0219074
-0.0206315
-0.0200051
-0.018828
-0.00882863
-0.00852467
-0.00878019
-0.00961811
-0.0111788
-0.0133599
-0.0159035
-0.0185562
-0.0211477
-0.0235991
-0.0258939
-0.0280424
-0.0300589
-0.0319488
-0.033707
-0.0353214
-0.0367773
-0.0380623
-0.0391682
-0.0400923
-0.0408372
-0.0414095
-0.0418184
-0.0420745
-0.0421884
-0.0421701
-0.0420288
-0.0417723
-0.0414074
-0.0409394
-0.0403723
-0.0397081
-0.0389479
-0.0380907
-0.0371347
-0.0360765
-0.034913
-0.0336406
-0.0322599
-0.0307725
-0.029191
-0.027528
-0.0258274
-0.0241107
-0.0225632
-0.0209326
-0.0200894
-0.0187571
-0.0183424
-0.0171673
-0.00842301
-0.00827111
-0.00828541
-0.00887753
-0.0101676
-0.0120892
-0.0144295
-0.0169493
-0.0194679
-0.0218868
-0.0241732
-0.0263287
-0.0283653
-0.0302898
-0.0320984
-0.0337786
-0.035314
-0.0366886
-0.0378901
-0.0389116
-0.0397516
-0.0404131
-0.0409026
-0.0412287
-0.0414008
-0.041428
-0.0413191
-0.0410818
-0.0407223
-0.0402462
-0.0396571
-0.0389573
-0.0381473
-0.0372264
-0.0361928
-0.0350434
-0.033776
-0.0323878
-0.0308812
-0.0292594
-0.0275383
-0.0257341
-0.0238992
-0.0220616
-0.020394
-0.0187107
-0.0178737
-0.0164494
-0.0162177
-0.0149907
-0.00810847
-0.00806356
-0.0079089
-0.00828871
-0.00927544
-0.0108702
-0.0129266
-0.015232
-0.0176075
-0.0199429
-0.0221902
-0.0243395
-0.0263957
-0.0283615
-0.030231
-0.0319893
-0.0336169
-0.0350939
-0.036404
-0.0375357
-0.0384835
-0.0392466
-0.0398284
-0.0402354
-0.0404752
-0.0405563
-0.0404867
-0.0402736
-0.0399231
-0.0394406
-0.03883
-0.0380929
-0.0372299
-0.03624
-0.0351217
-0.0338718
-0.0324887
-0.0309703
-0.0293204
-0.0275438
-0.0256599
-0.0236887
-0.0216907
-0.0197003
-0.017892
-0.0161289
-0.0152556
-0.0137437
-0.0136594
-0.0123316
-0.00786823
-0.00785021
-0.00768005
-0.00786507
-0.0085388
-0.00976314
-0.011456
-0.0134508
-0.0155908
-0.0177697
-0.0199312
-0.0220527
-0.0241257
-0.0261424
-0.0280883
-0.0299422
-0.0316795
-0.033276
-0.0347107
-0.035968
-0.0370378
-0.0379158
-0.0386024
-0.0391014
-0.0394189
-0.0395624
-0.0395393
-0.0393564
-0.039019
-0.0385325
-0.0379008
-0.0371253
-0.0362066
-0.0351431
-0.0339333
-0.0325737
-0.0310632
-0.0294
-0.0275891
-0.0256368
-0.023566
-0.021401
-0.0192107
-0.0170375
-0.0150658
-0.0131921
-0.0122608
-0.010642
-0.0107126
-0.00923022
-0.00768526
-0.00764604
-0.00755837
-0.00757438
-0.0079769
-0.00882014
-0.0100789
-0.0116558
-0.0134455
-0.0153698
-0.0173787
-0.0194388
-0.0215226
-0.0236017
-0.0256449
-0.0276188
-0.0294903
-0.0312292
-0.0328095
-0.034211
-0.0354197
-0.0364278
-0.0372325
-0.0378355
-0.0382412
-0.038456
-0.0384863
-0.0383392
-0.0380206
-0.0375336
-0.036882
-0.0360677
-0.0350912
-0.0339502
-0.0326428
-0.0311654
-0.0295166
-0.0276948
-0.0257059
-0.0235577
-0.021277
-0.0188925
-0.0164824
-0.0140988
-0.0119389
-0.00992531
-0.00891588
-0.00713973
-0.00742347
-0.00571837
-0.00754875
-0.00750145
-0.00745351
-0.00740112
-0.0076013
-0.00807883
-0.00884906
-0.00989793
-0.011206
-0.0127573
-0.0145276
-0.0164792
-0.0185603
-0.020712
-0.0228762
-0.0249998
-0.0270364
-0.028947
-0.0306993
-0.0322683
-0.0336361
-0.0347915
-0.0357293
-0.0364492
-0.0369544
-0.03725
-0.0373425
-0.0372381
-0.0369422
-0.0364575
-0.0357882
-0.0349359
-0.0339006
-0.0326795
-0.0312702
-0.0296682
-0.0278721
-0.0258801
-0.0236987
-0.0213372
-0.018826
-0.0161992
-0.0135445
-0.0109254
-0.00855251
-0.00637211
-0.00525503
-0.00325668
-0.00382741
-0.00176532
-0.00745023
-0.0074069
-0.00735913
-0.00733881
-0.00739904
-0.00755093
-0.00779971
-0.0082109
-0.00889628
-0.00994453
-0.0113779
-0.0131626
-0.0152193
-0.0174499
-0.0197591
-0.0220657
-0.0243037
-0.0264212
-0.0283775
-0.0301419
-0.0316926
-0.0330154
-0.0341033
-0.0349544
-0.035571
-0.0359577
-0.0361206
-0.0360656
-0.0357982
-0.0353208
-0.0346373
-0.0337488
-0.0326553
-0.0313536
-0.0298404
-0.0281104
-0.0261617
-0.0239921
-0.0216088
-0.0190222
-0.0162661
-0.0133802
-0.0104618
-0.00758595
-0.0049761
-0.00260121
-0.0013261
0.000953062
9.04127e-05
0.00279762
-0.00737118
-0.00735236
-0.00732536
-0.00735593
-0.00734115
-0.00722016
-0.00693356
-0.00661139
-0.00654393
-0.00696513
-0.00796135
-0.00951085
-0.0115107
-0.0138179
-0.0162916
-0.0188132
-0.0212901
-0.0236524
-0.025848
-0.0278391
-0.0295994
-0.0311123
-0.032369
-0.0333669
-0.0341079
-0.0345965
-0.0348389
-0.0348409
-0.0346084
-0.0341451
-0.033452
-0.0325307
-0.0313818
-0.0300018
-0.0283866
-0.02653
-0.0244296
-0.0220824
-0.0194961
-0.0166818
-0.0136763
-0.0105237
-0.00732902
-0.00417842
-0.00130536
0.00129935
0.00280561
0.0053982
0.00441883
0.00836134
-0.00727027
-0.00731885
-0.00729861
-0.00739864
-0.00736397
-0.00700194
-0.00617632
-0.00506039
-0.00415276
-0.0038539
-0.004331
-0.0055806
-0.00748543
-0.00985822
-0.0125065
-0.0152675
-0.0180156
-0.0206579
-0.0231272
-0.0253763
-0.0273735
-0.0290994
-0.0305442
-0.0317049
-0.0325836
-0.0331853
-0.0335168
-0.0335846
-0.0333955
-0.0329532
-0.0322577
-0.0313108
-0.0301132
-0.0286617
-0.0269522
-0.0249778
-0.0227356
-0.0202219
-0.0174443
-0.014414
-0.0111691
-0.00775592
-0.00428285
-0.000842732
0.00232776
0.00521835
0.00708101
0.0100609
0.00928973
0.0155383
-0.00713158
-0.00739538
-0.00746125
-0.00756039
-0.00741523
-0.00678462
-0.00541516
-0.00350101
-0.00173053
-0.000681226
-0.000597534
-0.00150147
-0.00327573
-0.00569456
-0.00851368
-0.0115235
-0.0145615
-0.0175075
-0.0202758
-0.0228072
-0.0250634
-0.0270217
-0.0286711
-0.0300086
-0.031037
-0.0317623
-0.0321922
-0.0323345
-0.0321964
-0.0317829
-0.031097
-0.0301357
-0.0289006
-0.0273893
-0.0255996
-0.0235249
-0.0211623
-0.0185072
-0.0155667
-0.0123505
-0.00889561
-0.00524569
-0.00150442
0.0022395
0.00576315
0.00904062
0.0114828
0.0150264
0.0150722
0.0250876
-0.00668307
-0.00718627
-0.00702027
-0.0073149
-0.00712081
-0.00627898
-0.00439526
-0.00177227
0.000759219
0.00249428
0.00310474
0.0025384
0.000904343
-0.00154259
-0.00451514
-0.00776209
-0.0110854
-0.0143365
-0.0174089
-0.0202299
-0.0227532
-0.0249519
-0.0268134
-0.0283347
-0.0295194
-0.0303744
-0.030909
-0.031132
-0.0310525
-0.030677
-0.0300111
-0.0290531
-0.0278002
-0.0262499
-0.0244032
-0.0222568
-0.0198085
-0.0170534
-0.0139972
-0.0106469
-0.00703354
-0.00319132
0.000793767
0.00485596
0.00882345
0.0126894
0.0160798
0.0206476
0.0228288
0.0381641
-0.00603025
-0.00786551
-0.00760096
-0.00769525
-0.00709674
-0.00563337
-0.0031256
0.000123932
0.00326524
0.00552821
0.0065482
0.00624625
0.00472465
0.00225743
-0.000842487
-0.00429473
-0.00787215
-0.0114001
-0.0147528
-0.0178436
-0.0206181
-0.0230447
-0.0251092
-0.0268076
-0.0281443
-0.0291268
-0.0297664
-0.0300731
-0.0300581
-0.0297291
-0.0290929
-0.0281512
-0.0269018
-0.0253386
-0.0234657
-0.0212831
-0.0187908
-0.0159845
-0.0128675
-0.00944296
-0.00573065
-0.00174698
0.00245948
0.00687098
0.011417
0.0161988
0.0211582
0.0279199
0.0346544
0.0586191
-0.0053746
-0.00692201
-0.00652658
-0.00622084
-0.0056084
-0.00393684
-0.00120319
0.00230132
0.00570616
0.00826479
0.00948509
0.00930645
0.00783388
0.0053453
0.00215262
-0.00145101
-0.0052216
-0.00896463
-0.0125407
-0.0158505
-0.0188331
-0.0214511
-0.0236888
-0.025541
-0.0270121
-0.0281092
-0.0288447
-0.0292292
-0.0292749
-0.0289899
-0.0283823
-0.0274565
-0.026218
-0.0246701
-0.0228079
-0.0206275
-0.018131
-0.01532
-0.0121928
-0.00874664
-0.00498804
-0.000906956
0.00350541
0.00833262
0.0136476
0.0199307
0.0275742
0.0395644
0.0563526
0.0965021
0.00135267
-0.00705199
-0.00865015
-0.00879048
-0.00729139
-0.0045944
-0.000634152
0.00354518
0.00745168
0.0101436
0.0114699
0.0113017
0.00981366
0.00728993
0.00403206
0.00033868
-0.00354365
-0.0074113
-0.0111213
-0.0145665
-0.0176834
-0.0204273
-0.0227824
-0.0247395
-0.0263074
-0.0274897
-0.0283041
-0.0287561
-0.0288646
-0.0286313
-0.0280744
-0.0271895
-0.0259923
-0.0244692
-0.0226338
-0.0204637
-0.0179776
-0.0151508
-0.0120231
-0.00856069
-0.00478988
-0.000603709
0.00402243
0.00945386
0.015984
0.0250896
0.0382811
0.0618155
0.100206
0.168076
-0.0161184
-0.00799725
-0.00650185
-0.00682445
-0.00526599
-0.00231629
0.00168639
0.00574457
0.00920777
0.0115802
0.0126101
0.0122845
0.0107
0.00810087
0.00478885
0.00105876
-0.00285185
-0.00674792
-0.0104913
-0.0139745
-0.017134
-0.0199215
-0.0223187
-0.0243079
-0.0259006
-0.0271009
-0.0279325
-0.0283987
-0.0285225
-0.0283006
-0.0277545
-0.0268739
-0.0256805
-0.0241561
-0.0223251
-0.0201624
-0.0177009
-0.0149108
-0.0118362
-0.00842709
-0.00470973
-0.000533123
0.00423528
0.0102353
0.0184545
0.0317885
0.0549169
0.0983085
0.171165
0.276481
)
;

boundaryField
{
    movingWall
    {
        type            zeroGradient;
    }
    fixedWalls
    {
        type            zeroGradient;
    }
    frontAndBack
    {
        type            empty;
    }
}


// ************************************************************************* //
