/*--------------------------------*- C++ -*----------------------------------*\
| =========                 |                                                 |
| \\      /  F ield         | OpenFOAM: The Open Source CFD Toolbox           |
|  \\    /   O peration     | Version:  2312                                  |
|   \\  /    A nd           | Website:  www.openfoam.com                      |
|    \\/     M anipulation  |                                                 |
\*---------------------------------------------------------------------------*/
FoamFile
{
    version     2.0;
    format      ascii;
    arch        "LSB;label=32;scalar=64";
    class       surfaceScalarField;
    location    "50";
    object      phi;
}
// * * * * * * * * * * * * * * * * * * * * * * * * * * * * * * * * * * * * * //

dimensions      [0 3 -1 0 0 0 0];

oriented        oriented;

internalField   nonuniform List<scalar> 
4900
(
7.01527e-07
-7.0152e-07
4.02513e-06
-3.3236e-06
8.44399e-06
-4.41886e-06
1.23535e-05
-3.90955e-06
1.48945e-05
-2.54098e-06
1.60601e-05
-1.16561e-06
1.63573e-05
-2.97186e-07
1.64137e-05
-5.63475e-08
1.66614e-05
-2.47765e-07
1.72019e-05
-5.40525e-07
1.78504e-05
-6.48478e-07
1.82117e-05
-3.61227e-07
1.80398e-05
1.71899e-07
1.72479e-05
7.91814e-07
1.54128e-05
1.83509e-06
1.17155e-05
3.69737e-06
4.08305e-06
7.63243e-06
-9.45347e-06
1.35365e-05
-3.06973e-05
2.12439e-05
-5.9789e-05
2.90916e-05
-9.46421e-05
3.48531e-05
-0.000131767
3.71247e-05
-0.000167752
3.59856e-05
-0.000199926
3.21735e-05
-0.000226381
2.64556e-05
-0.000245755
1.93733e-05
-0.000257116
1.13614e-05
-0.000259987
2.87083e-06
-0.000253248
-6.73868e-06
-0.00023625
-1.69981e-05
-0.00020878
-2.74706e-05
-0.000170955
-3.78242e-05
-0.000123579
-4.73765e-05
-6.8505e-05
-5.50738e-05
-8.85603e-06
-5.9649e-05
5.08188e-05
-5.96748e-05
0.000105851
-5.50321e-05
0.000149724
-4.38733e-05
0.000176616
-2.68914e-05
0.000183523
-6.90765e-06
0.000170109
1.34146e-05
0.000140368
2.97402e-05
0.000101398
3.89709e-05
6.26623e-05
3.87352e-05
3.18833e-05
3.0779e-05
1.25639e-05
1.93193e-05
2.93765e-06
9.62628e-06
-7.91331e-07
3.72898e-06
-1.43704e-06
6.45711e-07
-1.43704e-06
2.47666e-06
-3.17818e-06
9.25186e-06
-1.00988e-05
1.74524e-05
-1.26194e-05
2.45663e-05
-1.10235e-05
2.93634e-05
-7.33809e-06
3.18155e-05
-3.61773e-06
3.25602e-05
-1.04189e-06
3.23448e-05
1.59078e-07
3.15987e-05
4.98299e-07
3.01371e-05
9.21083e-07
2.72732e-05
2.21541e-06
2.20391e-05
4.87295e-06
1.27784e-05
9.43251e-06
-4.31073e-06
1.7881e-05
-3.27306e-05
3.02549e-05
-7.34992e-05
4.4466e-05
-0.000124758
5.88913e-05
-0.000181908
7.06869e-05
-0.000238722
7.80575e-05
-0.000290745
8.11143e-05
-0.000335839
7.99478e-05
-0.000373556
7.48411e-05
-0.00040387
6.63001e-05
-0.000426724
5.50269e-05
-0.000441942
4.16737e-05
-0.000449287
2.67188e-05
-0.000448412
1.04865e-05
-0.00043885
-6.69174e-06
-0.000420657
-2.49309e-05
-0.000393206
-4.44497e-05
-0.000356064
-6.46126e-05
-0.000309105
-8.47829e-05
-0.00025267
-0.000103812
-0.000187855
-0.000119888
-0.000116848
-0.000130656
-4.3137e-05
-0.000133385
2.83119e-05
-0.000126481
9.26184e-05
-0.00010818
0.000142362
-7.66346e-05
0.000173434
-3.79798e-05
0.000187421
-5.7253e-07
0.000183898
3.32635e-05
0.000166023
5.6845e-05
0.00013598
6.8779e-05
9.92881e-05
6.74707e-05
6.35057e-05
5.51017e-05
3.49187e-05
3.82133e-05
1.56522e-05
2.29954e-05
4.48193e-06
1.1816e-05
3.04489e-06
3.91155e-06
-7.08972e-06
1.31767e-05
-1.9364e-05
2.32941e-05
-2.27368e-05
3.11789e-05
-1.89083e-05
3.58036e-05
-1.19628e-05
3.74351e-05
-5.24914e-06
3.68048e-05
-4.11662e-07
3.43659e-05
2.59798e-06
2.98724e-05
4.9918e-06
2.21556e-05
8.63793e-06
8.71451e-06
1.56565e-05
-1.49782e-05
2.85656e-05
-5.35383e-05
4.79927e-05
-0.000107143
7.14859e-05
-0.000171175
9.42872e-05
-0.00023825
0.00011154
-0.000301443
0.000122085
-0.000357904
0.000127148
-0.000406879
0.000127032
-0.000447745
0.000121981
-0.000480611
0.000112813
-0.000506094
0.000100325
-0.000524935
8.51415e-05
-0.000537781
6.78727e-05
-0.000544992
4.88841e-05
-0.000546627
2.83541e-05
-0.000542177
6.03663e-06
-0.000531973
-1.68959e-05
-0.000515537
-4.13667e-05
-0.000492365
-6.76215e-05
-0.000461657
-9.53209e-05
-0.000422713
-0.000123727
-0.000375041
-0.000151484
-0.000318564
-0.000176366
-0.000254066
-0.000195155
-0.000183469
-0.000203982
-0.000110441
-0.000199509
-4.01392e-05
-0.000178481
2.26007e-05
-0.000139375
7.18086e-05
-8.71876e-05
0.000103595
-3.23592e-05
0.000122253
1.46057e-05
0.000128506
5.05918e-05
0.000122531
7.47543e-05
0.000104879
8.51221e-05
7.92518e-05
8.07293e-05
5.15676e-05
6.58975e-05
2.73758e-05
4.71873e-05
9.40759e-06
2.97842e-05
1.24525e-05
5.66946e-06
-1.27592e-05
1.71937e-05
-3.08882e-05
2.79523e-05
-3.34953e-05
3.46787e-05
-2.56347e-05
3.70111e-05
-1.42952e-05
3.56946e-05
-3.93271e-06
3.13162e-05
3.96674e-06
2.34593e-05
1.0455e-05
9.97471e-06
1.84764e-05
-1.36644e-05
3.2277e-05
-5.29746e-05
5.49667e-05
-0.000109642
8.52332e-05
-0.000178579
0.000116929
-0.000250408
0.000143315
-0.00031794
0.00016182
-0.000378434
0.000172034
-0.000430656
0.000174307
-0.000473971
0.000170463
-0.000508718
0.000161779
-0.000535914
0.000149177
-0.000556545
0.000133444
-0.000571579
0.000115359
-0.000581904
9.5466e-05
-0.000588228
7.4197e-05
-0.000591011
5.16673e-05
-0.000590406
2.77489e-05
-0.000585963
1.59365e-06
-0.000578487
-2.43725e-05
-0.000567117
-5.27358e-05
-0.000551288
-8.34507e-05
-0.000530243
-0.000116366
-0.000502952
-0.000151018
-0.000468267
-0.000186169
-0.000425025
-0.000219607
-0.000372418
-0.000247762
-0.000310563
-0.000265838
-0.00024138
-0.000268692
-0.000168366
-0.000251496
-9.73576e-05
-0.000210382
-3.57379e-05
-0.000148807
1.09396e-05
-7.90367e-05
4.2403e-05
-1.68577e-05
6.33819e-05
2.96129e-05
7.49936e-05
6.31426e-05
7.51807e-05
8.4935e-05
6.48102e-05
9.10998e-05
4.74533e-05
8.32544e-05
2.77881e-05
6.68525e-05
1.02412e-05
4.73311e-05
2.26937e-05
8.02545e-06
-2.07846e-05
2.12309e-05
-4.40937e-05
3.09888e-05
-4.32533e-05
3.46088e-05
-2.92547e-05
3.26316e-05
-1.2318e-05
2.6071e-05
2.62789e-06
1.45225e-05
1.55152e-05
-4.97398e-06
2.99514e-05
-3.81517e-05
5.16541e-05
-8.96238e-05
8.37491e-05
-0.000157382
0.000122725
-0.000232194
0.000160045
-0.000304631
0.000189367
-0.000369702
0.000208385
-0.000425012
0.00021713
-0.000470185
0.000217207
-0.000506156
0.000210278
-0.000533772
0.000198079
-0.000554043
0.00018205
-0.000568183
0.000163316
-0.000577442
0.000142704
-0.000582909
0.000120826
-0.000585513
9.80695e-05
-0.000585958
7.4642e-05
-0.000584771
5.04803e-05
-0.000582272
2.52504e-05
-0.000578862
-1.81619e-06
-0.00057427
-2.89646e-05
-0.000568317
-5.86891e-05
-0.000560671
-9.10968e-05
-0.000550676
-0.000126361
-0.000537297
-0.000164397
-0.000519022
-0.000204444
-0.000493878
-0.000244751
-0.000459523
-0.000282118
-0.000413769
-0.000311591
-0.000355786
-0.000326675
-0.000286466
-0.000320815
-0.000209314
-0.000287534
-0.000133257
-0.000224864
-6.97233e-05
-0.000142571
-2.50808e-05
-6.15003e-05
3.98401e-06
5.4816e-07
2.46776e-05
4.2449e-05
3.67639e-05
7.28487e-05
3.8684e-05
8.91798e-05
3.2012e-05
8.99264e-05
2.00757e-05
7.87888e-05
7.41424e-06
5.99926e-05
3.01079e-05
1.06455e-05
-3.14301e-05
2.39481e-05
-5.73963e-05
3.04509e-05
-4.97561e-05
2.88771e-05
-2.76809e-05
2.05192e-05
-3.96001e-06
5.37385e-06
1.77732e-05
-1.94761e-05
4.03652e-05
-5.97184e-05
7.01937e-05
-0.000118548
0.000110483
-0.000191305
0.000156506
-0.0002673
0.00019872
-0.000337726
0.000230471
-0.000398038
0.000249679
-0.000446932
0.000257279
-0.000484781
0.000254979
-0.000512611
0.000245037
-0.000531862
0.000229529
-0.000544074
0.00021029
-0.000550696
0.000188672
-0.000553093
0.000165714
-0.000552495
0.000142106
-0.000549954
0.000118285
-0.000546314
9.44289e-05
-0.000542183
7.0511e-05
-0.000538016
4.63131e-05
-0.00053426
2.14948e-05
-0.000531783
-4.29339e-06
-0.000529367
-3.13808e-05
-0.000527581
-6.04743e-05
-0.000526447
-9.22314e-05
-0.000525644
-0.000127164
-0.000524532
-0.000165508
-0.000521868
-0.000207108
-0.000515667
-0.000250952
-0.000502978
-0.000294807
-0.000479941
-0.000334628
-0.000442415
-0.000364201
-0.000387812
-0.000375418
-0.000315453
-0.000359894
-0.000230095
-0.000310222
-0.000145369
-0.000227297
-7.90861e-05
-0.000127783
-3.84804e-05
-4.00575e-05
-1.3636e-05
1.76046e-05
4.01006e-06
5.52026e-05
1.33812e-05
7.98086e-05
1.46682e-05
8.86394e-05
9.98567e-06
8.34713e-05
3.35961e-06
6.66186e-05
3.34675e-05
1.24723e-05
-4.39024e-05
2.31847e-05
-6.81087e-05
2.38616e-05
-5.04329e-05
1.4917e-05
-1.87364e-05
-2.89569e-06
1.38527e-05
-3.15772e-05
4.64547e-05
-7.57843e-05
8.45723e-05
-0.000137591
0.000132
-0.000211316
0.000184209
-0.000286103
0.000231293
-0.000353046
0.000265663
-0.000408102
0.000285527
-0.000450598
0.000292174
-0.000481096
0.000287777
-0.000501147
0.00027503
-0.000512578
0.000256468
-0.000517269
0.000234221
-0.000516989
0.00021001
-0.000513306
0.000184989
-0.000507537
0.000159944
-0.0005007
0.000135269
-0.00049363
0.000111215
-0.000486882
8.76817e-05
-0.000480829
6.44579e-05
-0.000475748
4.12315e-05
-0.000471988
1.77353e-05
-0.000469858
-6.42347e-06
-0.000468932
-3.23065e-05
-0.000469472
-5.99346e-05
-0.000471733
-8.99707e-05
-0.000475834
-0.000123062
-0.000481699
-0.000159644
-0.000488851
-0.000199956
-0.000496152
-0.000243651
-0.000501386
-0.000289573
-0.000500627
-0.000335387
-0.000488431
-0.000376398
-0.000458456
-0.000405392
-0.000405552
-0.000412798
-0.0003276
-0.000388174
-0.000230972
-0.000323924
-0.000136246
-0.000222509
-6.93711e-05
-0.000106933
-3.62483e-05
-1.55182e-05
-1.72109e-05
3.61652e-05
-4.5345e-06
6.71323e-05
1.29541e-06
8.28095e-05
1.66805e-06
8.30987e-05
-2.83542e-08
6.8315e-05
3.34391e-05
1.19831e-05
-5.58856e-05
1.67897e-05
-7.29153e-05
9.03974e-06
-4.26829e-05
-9.76467e-06
6.80444e-08
-4.03721e-05
4.44601e-05
-8.5616e-05
9.16986e-05
-0.000146972
0.000145929
-0.000219008
0.000204036
-0.000291227
0.000256427
-0.000354456
0.000294522
-0.000404735
0.000315943
-0.000441539
0.000322331
-0.000465783
0.000316418
-0.000479323
0.000301317
-0.000484427
0.000280134
-0.000483303
0.000255344
-0.000478005
0.000228923
-0.000470195
0.000202199
-0.000461248
0.000176042
-0.000452127
0.000150823
-0.000443472
0.000126614
-0.000435628
0.000103371
-0.000428802
8.08561e-05
-0.000423135
5.87904e-05
-0.000418746
3.68429e-05
-0.000415734
1.47228e-05
-0.000414025
-8.13263e-06
-0.000413884
-3.24468e-05
-0.000415436
-5.8383e-05
-0.000418878
-8.65286e-05
-0.000424498
-0.000117442
-0.000432546
-0.000151596
-0.000443167
-0.000189334
-0.00045608
-0.000230739
-0.000470216
-0.000275436
-0.000483381
-0.000322222
-0.000491436
-0.000368343
-0.000487487
-0.000409341
-0.000462926
-0.000437359
-0.000409614
-0.000441487
-0.000324218
-0.00040932
-0.000215221
-0.000331507
-0.000111677
-0.000210476
-4.90092e-05
-7.81858e-05
-2.54188e-05
1.25749e-05
-1.30281e-05
5.47415e-05
-5.74189e-06
7.55233e-05
-2.74068e-06
8.00975e-05
-1.5917e-06
6.71661e-05
3.18474e-05
8.13033e-06
-6.40159e-05
3.72458e-06
-6.85095e-05
-1.42252e-05
-2.47331e-05
-4.50931e-05
3.0936e-05
-8.92485e-05
8.86154e-05
-0.00014777
0.00015022
-0.000216275
0.000214434
-0.000285249
0.000273009
-0.000345291
0.00031647
-0.000391822
0.000341053
-0.00042428
0.000348401
-0.000443868
0.000341919
-0.000452665
0.000325215
-0.000453319
0.000301971
-0.000448354
0.000275169
-0.000439989
0.000246979
-0.000430065
0.000218999
-0.000419826
0.00019196
-0.000410033
0.000166249
-0.000401109
0.000141899
-0.000393258
0.000118763
-0.000386509
9.66226e-05
-0.000380842
7.51891e-05
-0.000376242
5.41902e-05
-0.000372726
3.33274e-05
-0.00037033
1.23263e-05
-0.000369077
-9.38523e-06
-0.000369216
-3.23078e-05
-0.000370951
-5.66485e-05
-0.000374531
-8.29481e-05
-0.000380262
-0.000111712
-0.000388453
-0.000143405
-0.000399384
-0.000178403
-0.000413184
-0.000216938
-0.000429652
-0.000258969
-0.000447885
-0.000303989
-0.000465509
-0.000350719
-0.000478286
-0.000396564
-0.000478515
-0.000437131
-0.00045582
-0.000464181
-0.000399852
-0.000465289
-0.00030612
-0.000425239
-0.000185377
-0.000331219
-7.725e-05
-0.000186313
-2.57563e-05
-3.89189e-05
-1.25468e-05
4.15321e-05
-5.98941e-06
6.89659e-05
-2.89539e-06
7.70035e-05
-1.3581e-06
6.56288e-05
3.04893e-05
2.62741e-07
-6.42786e-05
-1.45503e-05
-5.36965e-05
-4.42275e-05
4.94405e-06
-8.63411e-05
7.30496e-05
-0.000140842
0.000143116
-0.000204756
0.000214135
-0.000270153
0.000279831
-0.000327766
0.000330623
-0.000371996
0.000360699
-0.000401756
0.000370813
-0.000418445
0.000365089
-0.000424333
0.000347807
-0.000422305
0.000323188
-0.000415205
0.000294871
-0.000405421
0.000265385
-0.000394806
0.000236364
-0.000384456
0.000208649
-0.000374991
0.000182496
-0.000366651
0.000157909
-0.000359426
0.000134674
-0.000353227
0.000112564
-0.00034792
9.13156e-05
-0.000343415
7.06835e-05
-0.000339658
5.04338e-05
-0.000336665
3.03339e-05
-0.000334504
1.01657e-05
-0.000333272
-1.06169e-05
-0.000333228
-3.23525e-05
-0.000334598
-5.52782e-05
-0.000337662
-7.98838e-05
-0.000342741
-0.000106633
-0.000350179
-0.000135967
-0.000360312
-0.000168271
-0.000373413
-0.000203837
-0.000389566
-0.000242815
-0.000408433
-0.000285123
-0.00042886
-0.000330292
-0.000448326
-0.000377098
-0.000462376
-0.000423081
-0.000462953
-0.000463604
-0.000438873
-0.000489368
-0.000378167
-0.000485945
-0.000274872
-0.000434514
-0.00014347
-0.000317715
-3.97906e-05
-0.000142598
-6.89171e-06
8.63314e-06
-2.19195e-06
6.42661e-05
-1.34595e-07
7.49461e-05
1.32964e-07
6.53612e-05
3.06223e-05
-9.45746e-06
-5.48212e-05
-3.59959e-05
-2.7158e-05
-7.56448e-05
4.45929e-05
-0.000126202
0.000123607
-0.000185312
0.000202226
-0.000247088
0.00027591
-0.000302992
0.000335735
-0.000346514
0.000374145
-0.000375412
0.000389597
-0.000390965
0.000386366
-0.000395666
0.00036979
-0.000392498
0.00034464
-0.00038461
0.0003153
-0.000374577
0.000284838
-0.000364172
0.00025498
-0.000354493
0.000226685
-0.000345974
0.00020013
-0.000338699
0.000175221
-0.000332517
0.000151727
-0.000327213
0.00012937
-0.000322589
0.00010794
-0.000318495
8.72216e-05
-0.000314863
6.70513e-05
-0.000311681
4.72524e-05
-0.000308994
2.76467e-05
-0.000306849
8.0206e-06
-0.000305455
-1.20112e-05
-0.000305079
-3.27282e-05
-0.0003059
-5.44569e-05
-0.000308172
-7.76119e-05
-0.000312183
-0.000102622
-0.000318248
-0.000129902
-0.000326706
-0.000159812
-0.000337914
-0.000192629
-0.000352181
-0.000228548
-0.000369606
-0.000267698
-0.000389768
-0.00031013
-0.00041124
-0.000355626
-0.000431145
-0.000403176
-0.000444508
-0.000450241
-0.000442789
-0.000491088
-0.00041424
-0.000514494
-0.000345867
-0.000502887
-0.000230807
-0.000432775
-9.02876e-05
-0.000283117
-6.80279e-06
-7.48517e-05
4.58752e-06
5.28758e-05
4.90346e-06
7.46302e-05
2.4532e-06
6.78115e-05
3.30755e-05
-1.94876e-05
-3.53336e-05
-5.63066e-05
9.66104e-06
-0.000103381
9.16674e-05
-0.000158171
0.000178397
-0.000216499
0.000260554
-0.000271211
0.000330623
-0.000315502
0.000380026
-0.000345483
0.000404126
-0.000361701
0.000405815
-0.000366801
0.000391466
-0.00036388
0.000366869
-0.000356246
0.000337005
-0.00034673
0.000305784
-0.000337139
0.000275248
-0.000328543
0.000246384
-0.000321294
0.000219436
-0.000315304
0.00019414
-0.000310328
0.000170244
-0.000306049
0.000147448
-0.000302228
0.000125548
-0.000298689
0.000104401
-0.000295351
8.38829e-05
-0.0002922
6.39007e-05
-0.00028928
4.43326e-05
-0.000286672
2.50387e-05
-0.000284491
5.83893e-06
-0.000282942
-1.35604e-05
-0.000282246
-3.34237e-05
-0.000282616
-5.40867e-05
-0.000284282
-7.59464e-05
-0.000287475
-9.94292e-05
-0.000292422
-0.000124955
-0.000299344
-0.00015289
-0.000308474
-0.0001835
-0.000320088
-0.000216934
-0.000334505
-0.000253281
-0.000351953
-0.000292681
-0.000372182
-0.000335397
-0.000393759
-0.000381598
-0.000413426
-0.000430574
-0.000425075
-0.000479439
-0.000419065
-0.000520504
-0.000382684
-0.000539268
-0.000302358
-0.000513101
-0.000174111
-0.000411364
-3.76697e-05
-0.000211293
8.73697e-06
6.46913e-06
6.90568e-06
7.64615e-05
4.24597e-06
7.04712e-05
3.73215e-05
-2.80501e-05
-7.28353e-06
-7.18885e-05
5.34995e-05
-0.000123388
0.000143167
-0.000178705
0.000233713
-0.000232502
0.000314352
-0.000278428
0.000376548
-0.000311303
0.000412902
-0.000330104
0.000422927
-0.000337145
0.000412856
-0.00033575
0.00039007
-0.000329281
0.000360401
-0.000320808
0.000328532
-0.000312388
0.000297363
-0.000305064
0.000267923
-0.000299176
0.000240497
-0.000294523
0.000214782
-0.000290749
0.000190365
-0.000287493
0.000166988
-0.000284464
0.00014442
-0.000281501
0.000122585
-0.000278516
0.000101417
-0.000275513
8.08794e-05
-0.000272535
6.09225e-05
-0.000269666
4.1464e-05
-0.000267012
2.23843e-05
-0.000264726
3.5537e-06
-0.000262971
-1.53152e-05
-0.000261965
-3.44304e-05
-0.000261917
-5.41348e-05
-0.000263051
-7.48123e-05
-0.000265589
-9.68905e-05
-0.000269732
-0.000120812
-0.000275636
-0.000146986
-0.000283414
-0.000175722
-0.000293155
-0.000207193
-0.000304989
-0.000241448
-0.00031916
-0.00027851
-0.000335988
-0.000318569
-0.000355477
-0.000362109
-0.000376391
-0.00040966
-0.00039513
-0.0004607
-0.000404112
-0.000511522
-0.000392018
-0.000551362
-0.000344779
-0.00056034
-0.000247578
-0.000508565
-9.93478e-05
-0.000359524
4.52908e-06
-9.74078e-05
9.60924e-06
7.13813e-05
5.75819e-06
7.43222e-05
4.30797e-05
-3.32951e-05
2.60116e-05
-8.17551e-05
0.00010196
-0.000134542
0.000195954
-0.000187436
0.000286608
-0.000234973
0.000361888
-0.000271849
0.000413424
-0.000295075
0.000436128
-0.000305707
0.000433559
-0.00030706
0.000414208
-0.000302669
0.000385679
-0.00029573
0.000353461
-0.00028867
0.000321473
-0.000282709
0.000291402
-0.000278162
0.000263377
-0.000274829
0.000237163
-0.00027224
0.000212194
-0.000269999
0.000188124
-0.000267795
0.000164784
-0.000265458
0.000142083
-0.000262928
0.000120056
-0.000260213
9.87009e-05
-0.000257372
7.8039e-05
-0.000254488
5.80382e-05
-0.000251664
3.86397e-05
-0.000249015
1.97359e-05
-0.00024666
1.19871e-06
-0.000244795
-1.71811e-05
-0.00024357
-3.56544e-05
-0.000243185
-5.452e-05
-0.000243846
-7.41518e-05
-0.000245757
-9.49795e-05
-0.000249104
-0.000117465
-0.000254031
-0.000142058
-0.000260628
-0.000169125
-0.00026893
-0.000198891
-0.000278958
-0.00023142
-0.000290788
-0.00026668
-0.000304643
-0.000304714
-0.00032087
-0.000345882
-0.000339554
-0.000390976
-0.000359431
-0.000440823
-0.000376233
-0.00049472
-0.000380554
-0.000547041
-0.00035856
-0.000582335
-0.000294602
-0.000572522
-0.000179884
-0.000474242
-3.28039e-05
-0.000244488
1.16024e-05
2.6975e-05
3.77394e-06
8.21507e-05
4.68536e-05
-3.60473e-05
6.20588e-05
-8.59186e-05
0.000151831
-0.000137338
0.000247374
-0.000185804
0.000335074
-0.000226556
0.00040264
-0.000255388
0.000442256
-0.000271292
0.000452032
-0.000276696
0.000438964
-0.00027531
0.000412822
-0.000270518
0.000380887
-0.000264994
0.000347938
-0.000260416
0.000316894
-0.000257192
0.000288178
-0.000255127
0.000261312
-0.00025374
0.000235776
-0.000252543
0.000210997
-0.000251227
0.000186809
-0.000249607
0.000163164
-0.000247637
0.000140114
-0.000245343
0.000117761
-0.000242791
9.61492e-05
-0.000240073
7.53207e-05
-0.000237284
5.52498e-05
-0.000234533
3.58883e-05
-0.000231931
1.7134e-05
-0.000229603
-1.12938e-06
-0.000227686
-1.90986e-05
-0.000226342
-3.69985e-05
-0.000225743
-5.5119e-05
-0.000226076
-7.38182e-05
-0.000227531
-9.35247e-05
-0.000230276
-0.00011472
-0.000234436
-0.000137899
-0.00024006
-0.0001635
-0.000247131
-0.000191821
-0.000255592
-0.000222958
-0.000265446
-0.000256826
-0.000276859
-0.000293302
-0.000290231
-0.000332509
-0.000306073
-0.000375134
-0.00032442
-0.000422476
-0.000343508
-0.000475632
-0.000357498
-0.000533051
-0.00035487
-0.000584962
-0.000319664
-0.000607729
-0.000232778
-0.000561128
-8.08924e-05
-0.000396373
1.60208e-05
-6.99382e-05
4.872e-06
9.32995e-05
5.17256e-05
-3.63653e-05
9.84241e-05
-8.49754e-05
0.000200441
-0.000133018
0.000295416
-0.000176242
0.000378298
-0.000210421
0.000436818
-0.000232727
0.000464562
-0.000243603
0.000462908
-0.000246229
0.00044159
-0.000244274
0.000410867
-0.000240643
0.000377256
-0.000237439
0.000344735
-0.000235503
0.000314958
-0.00023467
0.000287345
-0.000234484
0.000261125
-0.000234408
0.0002357
-0.00023407
0.000210659
-0.000233292
0.000186031
-0.00023201
0.000161882
-0.000230271
0.000138375
-0.00022815
0.00011564
-0.000225749
9.37488e-05
-0.000223171
7.27422e-05
-0.000220515
5.25938e-05
-0.000217882
3.32553e-05
-0.000215378
1.46302e-05
-0.000213108
-3.39967e-06
-0.000211195
-2.10113e-05
-0.000209778
-3.84159e-05
-0.000209008
-5.58889e-05
-0.000209055
-7.37708e-05
-0.000210099
-9.24803e-05
-0.000212314
-0.000112505
-0.000215836
-0.000134377
-0.000220731
-0.000158605
-0.000226962
-0.00018559
-0.000234396
-0.000215525
-0.00024287
-0.000248352
-0.000252342
-0.00028383
-0.000263077
-0.000321774
-0.000275748
-0.000362463
-0.000291147
-0.000407077
-0.000309184
-0.000457596
-0.000327107
-0.000515128
-0.000336279
-0.00057579
-0.000321317
-0.000622691
-0.00026071
-0.000621735
-0.000147699
-0.000509384
-1.02261e-05
-0.000207411
3.8356e-06
7.92378e-05
5.55612e-05
-3.42486e-05
0.000132673
-7.97876e-05
0.00024598
-0.000123366
0.000338994
-0.000161095
0.000416028
-0.00018947
0.000465193
-0.000206836
0.000481929
-0.000214621
0.000470692
-0.000216254
0.000443223
-0.000215046
0.000409659
-0.000213364
0.000375573
-0.000212617
0.000343988
-0.000212977
0.000315318
-0.000213972
0.000288339
-0.000215078
0.000262232
-0.000215845
0.000236467
-0.000216049
0.000210863
-0.000215625
0.000185607
-0.000214603
0.00016086
-0.00021308
0.000136852
-0.00021116
0.00011372
-0.00020896
9.15484e-05
-0.00020658
7.03626e-05
-0.00020412
5.01331e-05
-0.000201671
3.08064e-05
-0.000199327
1.2286e-05
-0.000197181
-5.54522e-06
-0.000195341
-2.28518e-05
-0.000193922
-3.98343e-05
-0.000193056
-5.67552e-05
-0.000192888
-7.39393e-05
-0.000193577
-9.17908e-05
-0.000195289
-0.000110794
-0.000198169
-0.000131497
-0.000202313
-0.000154461
-0.000207729
-0.000180174
-0.000214318
-0.000208936
-0.000221889
-0.000240781
-0.000230252
-0.000275467
-0.000239388
-0.000312638
-0.000249691
-0.00035216
-0.000262083
-0.000394685
-0.000277543
-0.000442136
-0.000295431
-0.00049724
-0.000310744
-0.000560477
-0.000310964
-0.000622471
-0.000280399
-0.0006523
-0.000200262
-0.000589522
-4.47918e-05
-0.000362881
5.96266e-06
2.84834e-05
6.15239e-05
-3.04153e-05
0.000163088
-7.15489e-05
0.000287114
-0.000110122
0.000377567
-0.00014251
0.000448416
-0.000165996
0.000488678
-0.000179828
0.000495761
-0.000185981
0.000476845
-0.000187764
0.000445006
-0.000187954
0.000409849
-0.000188375
0.000375994
-0.000189786
0.000345399
-0.000191918
0.000317451
-0.000194205
0.000290625
-0.000196176
0.000264203
-0.000197509
0.000237801
-0.000198108
0.000211461
-0.000197986
0.000185485
-0.000197231
0.000160105
-0.000195964
0.000135584
-0.000194301
0.000112058
-0.000192359
8.96065e-05
-0.000190235
6.8239e-05
-0.000188021
4.79192e-05
-0.000185801
2.85857e-05
-0.000183657
1.0142e-05
-0.000181673
-7.52871e-06
-0.000179944
-2.45807e-05
-0.000178571
-4.12077e-05
-0.000177666
-5.76604e-05
-0.000177355
-7.42505e-05
-0.000177779
-9.13665e-05
-0.00017909
-0.000109483
-0.000181434
-0.000129153
-0.000184919
-0.000150976
-0.000189578
-0.000175514
-0.000195339
-0.000203176
-0.000202019
-0.0002341
-0.000209387
-0.0002681
-0.000217289
-0.000304735
-0.000225859
-0.00034359
-0.000235752
-0.000384792
-0.000248137
-0.000429751
-0.000263792
-0.000481584
-0.00028082
-0.000543449
-0.000291017
-0.000612273
-0.000277721
-0.000665596
-0.000214396
-0.000652847
-8.1763e-05
-0.000495514
1.79452e-05
-7.12248e-05
7.94691e-05
-2.54443e-05
0.000188532
-6.13465e-05
0.000323016
-9.47051e-05
0.000410926
-0.000122144
0.000475855
-0.000141629
0.000508164
-0.000153038
0.00050717
-0.000158527
0.000482335
-0.000161051
0.00044753
-0.000162827
0.000411625
-0.000165131
0.000378298
-0.000168228
0.000348496
-0.000171629
0.000320852
-0.000174799
0.000293796
-0.000177367
0.000266771
-0.000179131
0.000239564
-0.000180079
0.00021241
-0.000180274
0.00018568
-0.000179831
0.000159661
-0.000178877
0.00013463
-0.000177532
0.000110713
-0.000175909
8.7983e-05
-0.000174098
6.64287e-05
-0.000172184
4.6005e-05
-0.000170241
2.66423e-05
-0.00016834
8.24134e-06
-0.000166559
-9.30936e-06
-0.000164981
-2.61595e-05
-0.000163691
-4.24974e-05
-0.000162787
-5.85643e-05
-0.000162377
-7.4661e-05
-0.000162582
-9.1161e-05
-0.000163542
-0.000108523
-0.0001654
-0.000127294
-0.000168289
-0.000148088
-0.000172283
-0.000171519
-0.000177364
-0.000198094
-0.000183389
-0.000228076
-0.000190107
-0.000261382
-0.000197256
-0.000297587
-0.000204751
-0.000336096
-0.000212964
-0.000376578
-0.000222953
-0.000419762
-0.000236142
-0.000468396
-0.000252571
-0.00052702
-0.000267217
-0.000597627
-0.000264579
-0.000668234
-0.000221639
-0.000695787
-0.000126794
-0.000590359
1.48408e-05
-0.000212859
9.43099e-05
-1.97899e-05
0.000208322
-5.00056e-05
0.000353231
-7.81963e-05
0.000439117
-0.000101144
0.000498802
-0.00011738
0.0005244
-0.000127164
0.000516954
-0.000132562
0.000487732
-0.000136032
0.000451
-0.000139266
0.00041486
-0.000143071
0.000382103
-0.000147378
0.000352803
-0.000151643
0.000325116
-0.000155421
0.000297574
-0.000158435
0.000269785
-0.000160575
0.000241705
-0.000161879
0.000213714
-0.00016243
0.000186231
-0.00016235
0.000159582
-0.000161766
0.000134046
-0.000160797
0.000109744
-0.000159547
8.6733e-05
-0.000158102
6.49842e-05
-0.000156538
4.44404e-05
-0.000154919
2.50231e-05
-0.000153308
6.63028e-06
-0.000151774
-1.08432e-05
-0.000150389
-2.75444e-05
-0.00014923
-4.36566e-05
-0.00014838
-5.9414e-05
-0.000147932
-7.51089e-05
-0.00014799
-9.1103e-05
-0.000148673
-0.00010784
-0.000150112
-0.000125855
-0.000152438
-0.000145762
-0.000155751
-0.000168206
-0.000160082
-0.000193764
-0.000165353
-0.000222804
-0.000171369
-0.000255366
-0.000177852
-0.000291104
-0.000184569
-0.000329379
-0.000191586
-0.000369561
-0.000199652
-0.000411696
-0.000210363
-0.000457684
-0.000224949
-0.000512435
-0.000240584
-0.000581991
-0.000245882
-0.000662936
-0.0002238
-0.00071787
-0.000154884
-0.000659275
-2.47733e-06
-0.000365266
9.18326e-05
-1.38118e-05
0.000222134
-3.81326e-05
0.000377552
-6.13222e-05
0.000462306
-8.02237e-05
0.000517704
-9.38028e-05
0.000537979
-0.000102486
0.000525638
-0.000108054
0.000493299
-0.000112435
0.000455381
-0.000116846
0.000419271
-0.000121731
0.000386987
-0.00012684
0.000357912
-0.000131673
0.000329949
-0.000135879
0.00030178
-0.000139257
0.000273162
-0.000141758
0.000244206
-0.000143438
0.000215393
-0.000144383
0.000187176
-0.000144713
0.000159912
-0.000144547
0.00013388
-0.000143999
0.000109196
-0.000143167
8.59013e-05
-0.000142132
6.39493e-05
-0.000140961
4.3269e-05
-0.00013971
2.37725e-05
-0.000138432
5.35231e-06
-0.000137189
-1.20868e-05
-0.00013604
-2.86931e-05
-0.000135053
-4.46438e-05
-0.000134301
-6.01659e-05
-0.000133865
-7.55446e-05
-0.000133837
-9.11313e-05
-0.000134321
-0.000107356
-0.000135439
-0.000124737
-0.000137319
-0.000143882
-0.000140077
-0.000165448
-0.000143781
-0.00019006
-0.000148406
-0.000218179
-0.000153811
-0.000249961
-0.000159752
-0.000285162
-0.000165963
-0.000323168
-0.000172335
-0.000363189
-0.000179264
-0.000404767
-0.000188064
-0.000448885
-0.000200699
-0.000499799
-0.000217284
-0.000565406
-0.000230744
-0.000649477
-0.000220977
-0.000727636
-0.000159162
-0.000721091
-2.89582e-05
-0.000495469
6.28743e-05
-7.69636e-06
0.00022983
-2.61056e-05
0.000395961
-4.45312e-05
0.000480732
-5.97694e-05
0.000532942
-7.1106e-05
0.000549316
-7.89851e-05
0.000533517
-8.4793e-05
0.000499107
-8.99172e-05
0.000460505
-9.51714e-05
0.000424526
-0.000100752
0.000392568
-0.000106345
0.000363506
-0.000111533
0.000335137
-0.000116044
0.000306291
-0.000119738
0.000276856
-0.000122596
0.000247065
-0.000124671
0.000217468
-0.000126041
0.000188546
-0.000126815
0.000160686
-0.000127103
0.000134167
-0.000127012
0.000109105
-0.000126634
8.5524e-05
-0.000126047
6.3362e-05
-0.00012531
4.25322e-05
-0.000124474
2.2936e-05
-0.000123577
4.45526e-06
-0.000122677
-1.29867e-05
-0.000121818
-2.95517e-05
-0.000121058
-4.54042e-05
-0.000120459
-6.07648e-05
-0.000120092
-7.59118e-05
-0.000120035
-9.11878e-05
-0.00012038
-0.000107011
-0.000121233
-0.000123885
-0.000122713
-0.000142402
-0.000124942
-0.000163219
-0.000128015
-0.000186987
-0.000131959
-0.000214235
-0.000136698
-0.000245223
-0.000142035
-0.000279825
-0.000147695
-0.000317508
-0.000153452
-0.000357432
-0.000159413
-0.000398806
-0.000166532
-0.000441766
-0.00017704
-0.000489291
-0.00019335
-0.000549096
-0.000212165
-0.000630662
-0.000216038
-0.000723762
-0.000171359
-0.00076577
-6.84023e-05
-0.000598426
-5.52793e-06
-1.50657e-06
0.000231337
-1.41833e-05
0.000408638
-2.80606e-05
0.000494609
-3.99377e-05
0.000544819
-4.93142e-05
0.000558692
-5.65207e-05
0.000540723
-6.25038e-05
0.00050509
-6.81442e-05
0.000466146
-7.39274e-05
0.000430309
-7.98871e-05
0.000398528
-8.57175e-05
0.000369336
-9.10978e-05
0.000340517
-9.5827e-05
0.000311021
-9.97995e-05
0.000280829
-0.000103005
0.00025027
-0.000105481
0.000219944
-0.000107292
0.000190357
-0.00010853
0.000161924
-0.000109294
0.000134931
-0.000109684
0.000109494
-0.000109786
8.56265e-05
-0.000109675
6.32504e-05
-0.000109405
4.22624e-05
-0.00010902
2.25508e-05
-0.000108553
3.98868e-06
-0.000108044
-1.34957e-05
-0.000107529
-3.00664e-05
-0.000107053
-4.58804e-05
-0.000106668
-6.115e-05
-0.000106435
-7.61447e-05
-0.000106424
-9.11988e-05
-0.000106716
-0.000106719
-0.000107406
-0.000123195
-0.000108604
-0.000141204
-0.00011043
-0.000161392
-0.000112994
-0.000184423
-0.00011636
-0.000210869
-0.000120507
-0.000241076
-0.000125307
-0.000275025
-0.000130528
-0.000312286
-0.000135905
-0.000352056
-0.000141334
-0.000393377
-0.000147351
-0.000435749
-0.000155788
-0.000480854
-0.000169563
-0.000535322
-0.000188867
-0.000611358
-0.000201587
-0.000711042
-0.000183611
-0.000783746
-0.000114522
-0.000667515
-0.00012005
4.18259e-06
0.000227154
-2.54142e-06
0.000415362
-1.20641e-05
0.000504132
-2.07877e-05
0.000553543
-2.83344e-05
0.000566239
-3.48545e-05
0.000547244
-4.0892e-05
0.000511127
-4.68268e-05
0.00047208
-5.28608e-05
0.000436343
-5.89457e-05
0.000404613
-6.48273e-05
0.000375217
-7.0277e-05
0.000345967
-7.51463e-05
0.00031589
-7.93536e-05
0.000285036
-8.28837e-05
0.0002538
-8.57535e-05
0.000222813
-8.80086e-05
0.000192613
-8.97199e-05
0.000163636
-9.09712e-05
0.000136182
-9.1854e-05
0.000110377