/*--------------------------------*- C++ -*----------------------------------*\
| =========                 |                                                 |
| \\      /  F ield         | OpenFOAM: The Open Source CFD Toolbox           |
|  \\    /   O peration     | Version:  2312                                  |
|   \\  /    A nd           | Website:  www.openfoam.com                      |
|    \\/     M anipulation  |                                                 |
\*---------------------------------------------------------------------------*/
FoamFile
{
    version     2.0;
    format      ascii;
    arch        "LSB;label=32;scalar=64";
    class       surfaceScalarField;
    location    "50";
    object      phi;
}
// * * * * * * * * * * * * * * * * * * * * * * * * * * * * * * * * * * * * * //

dimensions      [0 3 -1 0 0 0 0];

oriented        oriented;

internalField   nonuniform List<scalar> 
5100
(
3.42819e-07
-3.4258e-07
3.2503e-06
-2.90748e-06
7.33213e-06
-4.08183e-06
1.09471e-05
-3.61495e-06
1.3172e-05
-2.22495e-06
1.39571e-05
-7.85102e-07
1.38004e-05
1.56712e-07
1.33777e-05
4.22739e-07
1.32058e-05
1.71909e-07
1.34861e-05
-2.80279e-07
1.41094e-05
-6.23316e-07
1.47497e-05
-6.40369e-07
1.50264e-05
-2.76712e-07
1.47688e-05
2.57655e-07
1.35686e-05
1.20017e-06
1.10052e-05
2.56339e-06
5.57842e-06
5.42682e-06
-4.75094e-06
1.03294e-05
-2.19441e-05
1.71932e-05
-4.72089e-05
2.52648e-05
-7.95182e-05
3.23093e-05
-0.000115942
3.64239e-05
-0.000152724
3.67822e-05
-0.000186726
3.40019e-05
-0.000215701
2.89743e-05
-0.000238102
2.24014e-05
-0.000252851
1.47496e-05
-0.000259304
6.45241e-06
-0.000256952
-2.35137e-06
-0.000244604
-1.23487e-05
-0.000222048
-2.2556e-05
-0.000189227
-3.28207e-05
-0.00014655
-4.26775e-05
-9.52736e-05
-5.12759e-05
-3.77909e-05
-5.74828e-05
2.21608e-05
-5.99517e-05
8.03712e-05
-5.82103e-05
0.000130952
-5.05804e-05
0.000168296
-3.73446e-05
0.000187343
-1.9047e-05
0.000187022
3.20665e-07
0.000167009
2.00133e-05
0.000132782
3.42268e-05
9.16954e-05
4.10869e-05
5.33799e-05
3.83156e-05
2.49979e-05
2.8382e-05
8.49223e-06
1.65056e-05
9.25962e-07
7.56627e-06
-1.63723e-06
2.56319e-06
-1.70113e-06
6.39026e-08
-1.70113e-06
2.01361e-06
-2.35619e-06
8.33198e-06
-9.22584e-06
1.62123e-05
-1.19621e-05
2.30668e-05
-1.04695e-05
2.75523e-05
-6.71046e-06
2.95665e-05
-2.79931e-06
2.97199e-05
3.327e-09
2.89045e-05
1.23811e-06
2.76922e-05
1.38416e-06
2.61234e-05
1.28861e-06
2.36823e-05
1.81771e-06
1.94714e-05
3.57061e-06
1.23038e-05
6.89089e-06
-5.72728e-07
1.31341e-05
-2.29489e-05
2.35763e-05
-5.75036e-05
3.71182e-05
-0.000103558
5.14816e-05
-0.000158319
6.50897e-05
-0.000215755
7.46297e-05
-0.000270167
7.96764e-05
-0.000318251
8.0393e-05
-0.000358833
7.70061e-05
-0.000391905
6.98541e-05
-0.000417539
5.96366e-05
-0.000435647
4.70814e-05
-0.000446046
3.28004e-05
-0.000448508
1.72118e-05
-0.000442389
3.33234e-07
-0.000427838
-1.69018e-05
-0.000404591
-3.55963e-05
-0.000371931
-5.52152e-05
-0.000329671
-7.50813e-05
-0.000277924
-9.44241e-05
-0.000217379
-0.000111821
-0.000149594
-0.000125268
-7.72642e-05
-0.000132281
-5.11546e-06
-0.000130359
6.37837e-05
-0.00011948
0.000122056
-9.56173e-05
0.000164144
-6.11349e-05
0.000187573
-2.31082e-05
0.000194931
1.26558e-05
0.0001864
4.27575e-05
0.000164131
6.33564e-05
0.00013065
7.17966e-05
9.23788e-05
6.66527e-05
5.71793e-05
5.17052e-05
3.04862e-05
3.42594e-05
1.32464e-05
1.98029e-05
3.62739e-06
9.68295e-06
1.92626e-06
3.42517e-06
-5.78136e-06
1.23083e-05
-1.81089e-05
2.22687e-05
-2.19225e-05
3.00801e-05
-1.82809e-05
3.45577e-05
-1.1188e-05
3.58983e-05
-4.1399e-06
3.48854e-05
1.01619e-06
3.21579e-05
3.96561e-06
2.78527e-05
5.68937e-06
2.1195e-05
7.94627e-06
1.03906e-05
1.26221e-05
-8.00747e-06
2.19687e-05
-3.89339e-05
3.78173e-05
-8.50789e-05
5.92792e-05
-0.000144306
8.28034e-05
-0.000210394
0.000103206
-0.000275803
0.00011689
-0.00033499
0.000124277
-0.000386979
0.000126619
-0.000430932
0.000123629
-0.000466725
0.000116186
-0.000494746
0.000105027
-0.00051578
9.0888e-05
-0.000530567
7.44233e-05
-0.000539628
5.61428e-05
-0.000543174
3.63467e-05
-0.000540978
1.50159e-05
-0.000533017
-7.62808e-06
-0.000519007
-3.09122e-05
-0.000498622
-5.59808e-05
-0.00047127
-8.25676e-05
-0.000436184
-0.000110167
-0.000392818
-0.00013779
-0.000340905
-0.000163734
-0.000280788
-0.000185384
-0.000213824
-0.000199245
-0.000142436
-0.000201747
-7.1581e-05
-0.000190335
-6.09506e-06
-0.000161103
5.02451e-05
-0.000117475
9.0999e-05
-6.3862e-05
0.000117036
-1.33814e-05
0.000131138
2.86562e-05
0.000133644
6.08501e-05
0.000123908
8.15326e-05
0.000103179
8.7381e-05
7.589e-05
7.89947e-05
4.82112e-05
6.19382e-05
2.50882e-05
4.29259e-05
8.44515e-06
2.6326e-05
1.03714e-05
5.17154e-06
-1.09529e-05
1.65005e-05
-2.94379e-05
2.73934e-05
-3.28154e-05
3.43239e-05
-2.52114e-05
3.67476e-05
-1.36117e-05
3.54022e-05
-2.79455e-06
3.11098e-05
5.30861e-06
2.39735e-05
1.1102e-05
1.27185e-05
1.69444e-05
-5.92109e-06
2.65858e-05
-3.71466e-05
4.38477e-05
-8.50662e-05
6.98882e-05
-0.000148248
0.000100999
-0.000219244
0.000130275
-0.000288985
0.000152544
-0.000352511
0.000166733
-0.000408054
0.000172434
-0.000454903
0.000171126
-0.000492765
0.000164481
-0.000522649
0.000153513
-0.000545531
0.000139068
-0.000562434
0.000121931
-0.000574301
0.000102754
-0.000581921
8.2044e-05
-0.000585842
6.00637e-05
-0.000586309
3.6813e-05
-0.000583208
1.19152e-05
-0.000576895
-1.39407e-05
-0.000566849
-4.09587e-05
-0.000552638
-7.01913e-05
-0.000533651
-0.000101555
-0.000509034
-0.000134784
-0.000477765
-0.000169059
-0.000438756
-0.000202744
-0.000391083
-0.000233057
-0.000334392
-0.000255935
-0.000269755
-0.000266385
-0.000200171
-0.000259919
-0.000129362
-0.000231911
-6.47262e-05
-0.000182111
-1.16579e-05
-0.00011693
2.67573e-05
-5.17966e-05
5.31372e-05
2.27627e-06
7.13867e-05
4.26006e-05
7.99721e-05
7.29472e-05
7.72696e-05
9.00835e-05
6.47332e-05
9.15311e-05
4.63016e-05
8.03698e-05
2.66323e-05
6.25953e-05
9.67322e-06
4.3285e-05
2.00446e-05
7.59301e-06
-1.85459e-05
2.09755e-05
-4.28204e-05
3.13127e-05
-4.31526e-05
3.55271e-05
-2.94258e-05
3.40331e-05
-1.21177e-05
2.8033e-05
3.20558e-06
1.78829e-05
1.54587e-05
1.96821e-06
2.70167e-05
-2.42425e-05
4.31551e-05
-6.62527e-05
6.8596e-05
-0.00012594
0.000103535
-0.000197714
0.000141662
-0.000271559
0.000174844
-0.000340081
0.000198797
-0.000399659
0.000212123
-0.000448907
0.00021598
-0.000488515
0.000212041
-0.000519449
0.000202061
-0.000542634
0.000187665
-0.000559218
0.000170097
-0.00057046
0.000150309
-0.000577512
0.000128983
-0.000581366
0.000106609
-0.000582794
8.34713e-05
-0.000582358
5.96282e-05
-0.00058043
3.48852e-05
-0.000577204
8.68831e-06
-0.000572945
-1.8199e-05
-0.000567225
-4.6679e-05
-0.000559838
-7.75786e-05
-0.000550318
-0.000111074
-0.000537884
-0.000147219
-0.00052136
-0.000185582
-0.000499125
-0.00022498
-0.00046916
-0.000263022
-0.000429324
-0.000295771
-0.000378062
-0.000317647
-0.000315822
-0.000322159
-0.000244278
-0.000303455
-0.000169899
-0.00025649
-0.000101887
-0.000184942
-4.9557e-05
-0.000104127
-1.35788e-05
-3.37019e-05
1.1999e-05
1.70228e-05
3.08162e-05
5.413e-05
4.06386e-05
8.02611e-05
4.0555e-05
9.16147e-05
3.2554e-05
8.83707e-05
2.00175e-05
7.51318e-05
7.31349e-06
5.59891e-05
2.73581e-05
1.04644e-05
-2.90103e-05
2.45426e-05
-5.68986e-05
3.22111e-05
-5.08211e-05
3.1776e-05
-2.89906e-05
2.46216e-05
-4.96336e-06
1.15941e-05
1.62331e-05
-8.64883e-06
3.57016e-05
-4.08804e-05
5.92483e-05
-9.0053e-05
9.23277e-05
-0.000155959
0.000134502
-0.00023067
0.000178246
-0.000303947
0.00021494
-0.000368977
0.000239874
-0.00042286
0.000252681
-0.000465487
0.000254749
-0.000497635
0.000248128
-0.000520659
0.000235065
-0.000536099
0.000217501
-0.000545441
0.000197007
-0.000550068
0.000174724
-0.000551252
0.000151493
-0.000550089
0.000127821
-0.000547483
0.000104002
-0.000544101
8.00895e-05
-0.000540424
5.59506e-05
-0.000536844
3.13056e-05
-0.000533956
5.8004e-06
-0.000531384
-2.07706e-05
-0.000529019
-4.90449e-05
-0.000527018
-7.95795e-05
-0.000525241
-0.00011285
-0.000523273
-0.000149187
-0.000520262
-0.000188594
-0.000514738
-0.000230503
-0.000504397
-0.000273363
-0.000486005
-0.000314164
-0.00045573
-0.000347922
-0.0004103
-0.000367589
-0.000348488
-0.000365267
-0.000271666
-0.000333312
-0.000188649
-0.000267959
-0.000114889
-0.000177887
-6.30908e-05
-8.54998e-05
-3.13641e-05
-1.47039e-05
-8.37436e-06
3.11402e-05
7.95243e-06
6.39343e-05
1.59073e-05
8.36598e-05
1.60153e-05
8.82627e-05
1.05294e-05
8.06177e-05
3.53812e-06
6.29803e-05
3.08962e-05
1.28374e-05
-4.18477e-05
2.5118e-05
-6.91792e-05
2.76832e-05
-5.33864e-05
2.07236e-05
-2.2031e-05
5.76638e-06
9.99385e-06
-1.78369e-05
3.98364e-05
-5.3923e-05
7.17876e-05
-0.000106594
0.000111919
-0.000174452
0.000160186
-0.000248957
0.000209007
-0.000319813
0.000249102
-0.000380408
0.000275534
-0.000428656
0.000288122
-0.000464624
0.000288648
-0.000489527
0.000279652
-0.00050513
0.000263731
-0.000513295
0.00024323
-0.000515825
0.000220032
-0.000514345
0.000195526
-0.000510269
0.000170649
-0.000504736
0.000145961
-0.000498615
0.0001217
-0.000492569
9.79556e-05
-0.000487022
7.45432e-05
-0.000482252
5.11806e-05
-0.000478498
2.75517e-05
-0.000476175
3.47693e-06
-0.000474828
-2.21175e-05
-0.000474598
-4.92746e-05
-0.000475675
-7.85025e-05
-0.000478193
-0.000110333
-0.000482198
-0.000145182
-0.000487478
-0.000183314
-0.000493341
-0.00022464
-0.00049829
-0.000268414
-0.000499387
-0.000313067
-0.000492197
-0.000355111
-0.000470961
-0.000388825
-0.000430206
-0.000406022
-0.00036647
-0.000397048
-0.000281126
-0.000353304
-0.000187116
-0.000271897
-0.000107263
-0.000165352
-5.8467e-05
-6.35e-05
-3.27464e-05
5.41956e-06
-1.45348e-05
4.57227e-05
-2.61049e-06
7.17355e-05
2.39778e-06
8.32544e-05
2.2005e-06
8.0815e-05
1.68279e-07
6.50126e-05
3.10645e-05
1.31978e-05
-5.50455e-05
2.04991e-05
-7.64805e-05
1.56021e-05
-4.84894e-05
2.02038e-07
-6.63096e-06
-2.52958e-05
3.54917e-05
-6.29717e-05
7.75124e-05
-0.000116028
0.000124844
-0.000182796
0.000178687
-0.000255121
0.000232512
-0.000322762
0.000276648
-0.000379161
0.0003055
-0.000422264
0.000318638
-0.000452419
0.000318277
-0.000471134
0.000307363
-0.000480497
0.000289015
-0.000482728
0.000265963
-0.000479921
0.000240422
-0.000473891
0.000214002
-0.000466107
0.000187743
-0.000457738
0.000162279
-0.000449577
0.000137799
-0.000442146
0.00011427
-0.000435704
9.15139e-05
-0.000430397
6.92354e-05
-0.000426314
4.70981e-05
-0.000423528
2.47655e-05
-0.000422043
1.99181e-06
-0.000421779
-2.2381e-05
-0.000422873
-4.81812e-05
-0.000425445
-7.59301e-05
-0.0004297
-0.000106077
-0.000435889
-0.000138993
-0.000444242
-0.000174962
-0.000454784
-0.000214098
-0.000466962
-0.000256236
-0.000479344
-0.000300685
-0.000488934
-0.000345522
-0.000490346
-0.000387413
-0.000476036
-0.000420332
-0.00043787
-0.000435214
-0.000370246
-0.000420929
-0.000274773
-0.00036737
-0.000169129
-0.000270996
-8.54398e-05
-0.000147189
-4.33359e-05
-3.66844e-05
-2.47928e-05
2.71796e-05
-1.24436e-05
5.93864e-05
-5.45704e-06
7.62679e-05
-2.68832e-06
7.80463e-05
-1.616e-06
6.39403e-05
2.94485e-05
1.03443e-05
-6.53898e-05
9.41772e-06
-7.5554e-05
-4.80635e-06
-3.42653e-05
-3.06478e-05
1.92105e-05
-6.81222e-05
7.2966e-05
-0.000119291
0.000128682
-0.00018284
0.000188392
-0.000251677
0.000247524
-0.000315975
0.00029681
-0.000368851
0.000329524
-0.000407868
0.000344517
-0.000433502
0.000344272
-0.000447469
0.000332244
-0.000452147
0.00031204
-0.000450057
0.000286925
-0.00044352
0.000259426
-0.000434519
0.000231421
-0.000424597
0.00020408
-0.000414813
0.000177959
-0.000405782
0.000153248
-0.000397853
0.00012987
-0.000391176
0.000107592
-0.000385766
8.61044e-05
-0.000381594
6.50633e-05
-0.000378626
4.41302e-05
-0.000376843
2.29823e-05
-0.000376216
1.36509e-06
-0.000376789
-2.18077e-05
-0.000378668
-4.6303e-05
-0.000381987
-7.26108e-05
-0.000386944
-0.00010112
-0.000393794
-0.000132143
-0.000402826
-0.000165929
-0.000414296
-0.000202628
-0.000428282
-0.00024225
-0.000444441
-0.000284525
-0.0004613
-0.000328663
-0.000475804
-0.000372909
-0.000482142
-0.000413994
-0.000471343
-0.000446013
-0.000433138
-0.000459133
-0.000360116
-0.000440391
-0.000254373
-0.000376739
-0.000138625
-0.000262938
-5.62487e-05
-0.00011906
-2.51721e-05
-3.89704e-06
-1.3993e-05
4.82073e-05
-7.16893e-06
6.94438e-05
-3.70756e-06
7.45849e-05
-1.7129e-06
6.19456e-05
2.77356e-05
3.585e-06
-6.89748e-05
-7.44411e-06
-6.45248e-05
-3.22166e-05
-9.49277e-06
-6.86709e-05
5.56648e-05
-0.000116884
0.000121179
-0.000176022
0.000187819
-0.000240566
0.000252937
-0.000301647
0.000308605
-0.000351914
0.000347078
-0.000388189
0.000365798
-0.000410782
0.00036711
-0.000421569
0.00035506
-0.000423103
0.000333777
-0.000418183
0.00030712
-0.000409327
0.00027807
-0.000398674
0.000248773
-0.000387737
0.000220485
-0.000377437
0.000193779
-0.00036829
0.000168812
-0.000360473
0.000145431
-0.000353983
0.00012338
-0.000348729
0.000102338
-0.000344605
8.19804e-05
-0.000341527
6.19857e-05
-0.000339438
4.20414e-05
-0.000338309
2.18527e-05
-0.000338191
1.2473e-06
-0.000339142
-2.08566e-05
-0.000341292
-4.41536e-05
-0.00034479
-6.91122e-05
-0.000349821
-9.60892e-05
-0.000356616
-0.000125349
-0.000365452
-0.000157093
-0.000376631
-0.000191449
-0.000390412
-0.00022847
-0.000406829
-0.000268108
-0.000425365
-0.000310127
-0.000444433
-0.00035384
-0.000460807
-0.000397621
-0.000468424
-0.000438396
-0.000457738
-0.000469819
-0.000417249
-0.00048088
-0.000337779
-0.000456209
-0.000221615
-0.000379102
-9.85797e-05
-0.000242096
-2.61711e-05
-7.63056e-05
-9.11009e-06
3.11463e-05
-3.90227e-06
6.4236e-05
-1.51295e-06
7.21955e-05
-5.29443e-07
6.09621e-05
2.72062e-05
-5.77317e-06
-6.32016e-05
-2.76922e-05
-4.26058e-05
-6.27759e-05
2.5591e-05
-0.000108122
0.000101011
-0.000162731
0.000175788
-0.000222808
0.000247897
-0.000280877
0.000311006
-0.000329551
0.000357278
-0.000364582
0.000382108
-0.000385713
0.00038693
-0.000394866
0.000376263
-0.000394715
0.000354908
-0.000388242
0.000327304
-0.000378229
0.000297107
-0.000366878
0.000266719
-0.000355698
0.000237593
-0.000345559
0.000210346
-0.000336837
0.000185057
-0.000329575
0.00016155
-0.000323642
0.000139498
-0.000318849
0.000118588
-0.000315015
9.85038e-05
-0.00031201
7.89754e-05
-0.000309762
5.97372e-05
-0.000308258
4.05376e-05
-0.00030752
2.11141e-05
-0.000307513
1.24029e-06
-0.000308544
-1.98252e-05
-0.00031066
-4.2037e-05
-0.000313978
-6.57945e-05
-0.000318654
-9.14133e-05
-0.000324863
-0.000119139
-0.000332834
-0.000149122
-0.000342854
-0.000181429
-0.000355262
-0.000216062
-0.000370343
-0.000253027
-0.000388101
-0.000292369
-0.00040786
-0.000334081
-0.000427726
-0.000377755
-0.000444172
-0.00042195
-0.00045072
-0.000463271
-0.000437459
-0.000494141
-0.000392026
-0.000501642
-0.000304058
-0.000467071
-0.000177236
-0.000368918
-5.37547e-05
-0.000199787
-3.34727e-06
-1.92611e-05
1.50409e-06
5.93846e-05
2.65866e-06
7.1041e-05
1.42394e-06
6.21968e-05
2.86301e-05
-1.58567e-05
-4.73449e-05
-4.86167e-05
-9.84582e-06
-9.15358e-05
6.851e-05
-0.000142392
0.000151867
-0.000198403
0.000231799
-0.000253872
0.000303365
-0.000301893
0.000359027
-0.000337234
0.000392619
-0.000358601
0.000403475
-0.000367663
0.000395993
-0.000367208
0.000375808
-0.000360331
0.00034803
-0.00035006
0.000317033
-0.000338705
0.000285752
-0.000327831
0.000255845
-0.00031829
0.000228053
-0.000310342
0.000202397
-0.000303919
0.000178634
-0.000298771
0.000156402
-0.000294626
0.000135352
-0.000291245
0.000115207
-0.000288461
9.57205e-05
-0.000286186
7.67005e-05
-0.000284397
5.79483e-05
-0.000283128
3.92677e-05
-0.000282439
2.04257e-05
-0.00028242
1.22132e-06
-0.000283289
-1.89568e-05
-0.000285177
-4.01484e-05
-0.00028821
-6.27612e-05
-0.000292511
-8.71126e-05
-0.000298186
-0.000113464
-0.00030534
-0.000141968
-0.000314112
-0.000172657
-0.000324713
-0.000205461
-0.000337461
-0.000240279
-0.000352716
-0.000277114
-0.000370617
-0.00031618
-0.000390535
-0.000357836
-0.0004104
-0.000402085
-0.000426097
-0.000447575
-0.000430211
-0.000490027
-0.000412141
-0.000519711
-0.000358834
-0.000520378
-0.000258982
-0.000468769
-0.000120231
-0.000338539
-1.43407e-05
-0.000125151
6.96378e-06
3.80802e-05
6.60194e-06
7.14028e-05
3.48972e-06
6.5309e-05
3.21198e-05
-2.49304e-05
-2.24145e-05
-6.56145e-05
3.08383e-05
-0.000114006
0.000116902
-0.000166967
0.000204828
-0.00022039
0.000285222
-0.000268411
0.000351387
-0.000305494
0.000396109
-0.000328867
0.000415993
-0.00033947
0.000414077
-0.000340079
0.000396602
-0.000333898
0.000369628
-0.00032412
0.000338252
-0.000313288
0.000306201
-0.00030308
0.000275544
-0.000294377
0.000247141
-0.000287385
0.000221061
-0.000281923
0.000196936
-0.000277663
0.000174374
-0.000274248
0.000152987
-0.000271402
0.000132507
-0.000268931
0.000112736
-0.000266735
9.35251e-05
-0.000264786
7.47514e-05
-0.000263115
5.62773e-05
-0.000261796
3.79482e-05
-0.000260931
1.95614e-05
-0.000260671
9.60931e-07
-0.000261191
-1.84364e-05
-0.00026267
-3.86693e-05
-0.000265262
-6.01695e-05
-0.000269096
-8.32787e-05
-0.000274269
-0.000108291
-0.000280834
-0.000135402
-0.000288814
-0.000164678
-0.000298228
-0.000196046
-0.000309165
-0.000229342
-0.00032185
-0.000264429
-0.000336665
-0.000301365
-0.000353928
-0.000340573
-0.000373242
-0.00038277
-0.000392489
-0.000428328
-0.000406707
-0.000475809
-0.000407041
-0.000519378
-0.000381485
-0.000545934
-0.000316573
-0.000533682
-0.000203384
-0.000451728
-5.64271e-05
-0.000272108
9.83852e-06
-2.81854e-05
8.22214e-06
7.30192e-05
5.13948e-06
6.83917e-05
3.72593e-05
-3.13551e-05
8.94067e-06
-7.75123e-05
7.69955e-05
-0.000128378
0.000167768
-0.000180338
0.000256788
-0.000228705
0.000333589
-0.000268391
0.000391072
-0.000295381
0.0004231
-0.000309257
0.000429869
-0.000312361
0.000417181
-0.000307996
0.000392237
-0.000299475
0.000361107
-0.000289599
0.000328376
-0.000280312
0.000296915
-0.000272568
0.0002678
-0.000266598
0.000241172
-0.000262151
0.000216613
-0.000258819
0.000193604
-0.000256198
0.000171753
-0.000253969
0.000150758
-0.000251933
0.000130471
-0.00024998
0.000110783
-0.000248083
9.16276e-05
-0.000246263
7.29317e-05
-0.000244588
5.46024e-05
-0.000243154
3.65138e-05
-0.000242086
1.84933e-05
-0.0002415
3.75141e-07
-0.000241646
-1.8291e-05
-0.00024266
-3.76549e-05
-0.000244709
-5.81201e-05
-0.000247938
-8.00503e-05
-0.000252448
-0.000103781
-0.000258288
-0.000129562
-0.000265452
-0.000157514
-0.000273896
-0.000187602
-0.000283583
-0.000219656
-0.000294545
-0.000253466
-0.000306977
-0.000288934
-0.000321272
-0.000326279
-0.000337837
-0.000366204
-0.000356392
-0.000409773
-0.000374662
-0.000457539
-0.00038656
-0.00050748
-0.000381475
-0.000551018
-0.000345263
-0.000569894
-0.000261896
-0.000535095
-0.000127193
-0.000406811
-6.90343e-06
-0.000148475
1.00457e-05
5.60701e-05
5.21865e-06
7.32187e-05
4.2478e-05
-3.48852e-05
4.38259e-05
-8.36939e-05
0.000125804
-0.000134422
0.000218495
-0.000183109
0.000305475
-0.000225429
0.000375909
-0.000256988
0.000422631
-0.00027573
0.000441842
-0.000282856
0.000436994
-0.000281493
0.000415819
-0.000275089
0.000385833
-0.000266649
0.000352667
-0.000258485
0.000320212
-0.000251785
0.000290214
-0.000246844
0.000262859
-0.000243428
0.000237755
-0.000241055
0.00021424
-0.000239282
0.000191831
-0.000237759
0.00017023
-0.000236274
0.000149273
-0.000234721
0.000128917
-0.000233067
0.000109129
-0.000231337
8.98972e-05
-0.000229582
7.11775e-05
-0.000227886
5.29065e-05
-0.00022635
3.49774e-05
-0.0002251
1.72432e-05
-0.000224252
-4.7281e-07
-0.000224034
-1.8509e-05
-0.000224596
-3.70926e-05
-0.000226114
-5.66026e-05
-0.000228742
-7.74222e-05
-0.000232595
-9.99283e-05
-0.000237721
-0.000124436
-0.000244094
-0.000151141
-0.00025162
-0.000180077
-0.000260175
-0.000211101
-0.000269689
-0.000243952
-0.000280235
-0.000278388
-0.000292119
-0.000314395
-0.000305868
-0.000352456
-0.000321944
-0.000393697
-0.000339886
-0.000439596
-0.00035675
-0.000490617
-0.00036463
-0.000543137
-0.000350627
-0.000583897
-0.000299716
-0.000586007
-0.000200029
-0.000506498
-4.72493e-05
-0.000301254
1.31076e-05
-4.28688e-06
3.52295e-06
8.28034e-05
4.60009e-05
-3.61538e-05
7.99797e-05
-8.47602e-05
0.000174411
-0.000133089
0.000266824
-0.000177238
0.000349624
-0.000213196
0.000411867
-0.000237744
0.00044718
-0.000250341
0.000454439
-0.00025325
0.000439903
-0.000249903
0.000412472
-0.000243537
0.000379467
-0.000236744
0.000345873
-0.000231151
0.000314619
-0.000227241
0.000286304
-0.000224838
0.000260456
-0.000223455
0.000236372
-0.000222583
0.000213368
-0.000221854
0.000191103
-0.000221032
0.000169408
-0.000220013
0.000148254
-0.000218768
0.000127673
-0.000217322
0.000107682
-0.000215723
8.82984e-05
-0.000214039
6.94934e-05
-0.000212351
5.12192e-05
-0.000210756
3.33822e-05
-0.00020937
1.58569e-05
-0.000208313
-1.52959e-06
-0.000207768
-1.90544e-05
-0.000207894
-3.69662e-05
-0.00020887
-5.56263e-05
-0.000210866
-7.54269e-05
-0.00021402
-9.67744e-05
-0.000218414
-0.000120041
-0.000224049
-0.000145506
-0.00023083
-0.000173296
-0.000238578
-0.000203352
-0.000247095
-0.000235436
-0.000256265
-0.000269217
-0.000266215
-0.000304445
-0.000277438
-0.000341233
-0.000290729
-0.000380406
-0.000306654
-0.000423672
-0.000324277
-0.000472995
-0.000339164
-0.00052825
-0.00034104
-0.000582021
-0.000314153
-0.000612893
-0.000237205
-0.000583446
-0.000101117
-0.000437342
1.14777e-05
-0.000116882
5.89908e-06
8.83821e-05
5.19e-05
-3.49936e-05
0.000114973
-8.13186e-05
0.000220736
-0.000125834
0.00031134
-0.00016485
0.000388641
-0.00019488
0.000441896
-0.000213815
0.000466115
-0.000222241
0.000462864
-0.000222989
0.000440651
-0.000219443
0.000408927
-0.00021443
0.000374453
-0.000210025
0.000341469
-0.00020714
0.000311734
-0.000205725
0.000284889
-0.000205339
0.00026007
-0.000205434
0.000236467
-0.000205587
0.000213521
-0.000205549
0.000191065
-0.000205198
0.000169056
-0.000204515
0.000147571
-0.000203524
0.000126682
-0.000202279
0.000106438
-0.000200842
8.68611e-05
-0.000199282
6.79329e-05
-0.000197674
4.96111e-05
-0.000196104
3.18128e-05
-0.000194673
1.44261e-05
-0.000193492
-2.71138e-06
-0.000192715
-1.9831e-05
-0.000192492
-3.71895e-05
-0.000192991
-5.51273e-05
-0.000194382
-7.40354e-05
-0.000196819
-9.43377e-05
-0.000200411
-0.000116449
-0.000205198
-0.000140719
-0.000211129
-0.000167365
-0.00021806
-0.000196421
-0.000225773
-0.000227723
-0.000234041
-0.000260949
-0.000242751
-0.000295735
-0.000252091
-0.000331893
-0.000262728
-0.000369769
-0.000275714
-0.000410685
-0.000291653
-0.000457055
-0.00030882
-0.000511084
-0.000319955
-0.000570887
-0.000310711
-0.000622136
-0.000262817
-0.000631341
-0.000164245
-0.000535914
-2.14772e-05
-0.00025965
3.78718e-06
6.31176e-05
5.56872e-05
-3.18622e-05
0.000146835
-7.44109e-05
0.000263284
-0.000114335
0.000351263
-0.000148129
0.000422435
-0.00017298
0.000466747
-0.000187689
0.000480824
-0.000193577
0.000468752
-0.000193654
0.000440727
-0.00019101
0.000406283
-0.000188015
0.000371459
-0.000186126
0.00033958
-0.000185657
0.000311266
-0.00018624
0.000285472
-0.000187341
0.000261171
-0.000188469
0.000237596
-0.000189331
0.000214383
-0.000189787
0.000191521
-0.000189806
0.000169076
-0.000189424
0.000147188
-0.000188693
0.000125952
-0.000187682
0.000105426
-0.000186454
8.5633e-05
-0.000185074
6.65536e-05
-0.000183611
4.81473e-05
-0.000182137
3.03392e-05
-0.000180739
1.30286e-05
-0.000179517
-3.93422e-06
-0.000178596
-2.07513e-05
-0.000178115
-3.76705e-05
-0.00017823
-5.5013e-05
-0.000179104
-7.31607e-05
-0.000180899
-9.25426e-05
-0.000183746
-0.000113603
-0.000187717
-0.000136748
-0.000192802
-0.000162279
-0.000198893
-0.000190331
-0.00020579
-0.000220826
-0.000213254
-0.000253486
-0.000221083
-0.000287906
-0.000229255
-0.000323721
-0.000238121
-0.000360903
-0.000248571
-0.000400235
-0.000261779
-0.000443847
-0.000277823
-0.000495039
-0.000293107
-0.000555602
-0.000296757
-0.000618486
-0.000273055
-0.000655043
-0.000201282
-0.000607687
-5.40445e-05
-0.000406887
6.03508e-06
3.03806e-06
6.17223e-05
-2.73788e-05
0.000174214
-6.51317e-05
0.000301037
-0.000100089
0.000386221
-0.000128917
0.000451262
-0.000149423
0.000487253
-0.0001611
0.000492501
-0.000165674
0.000473326
-0.00016605
0.000441103
-0.000164872
0.000405105
-0.000164033
0.000370619
-0.00016441
0.000339957
-0.000165893
0.000312749
-0.000167971
0.00028755
-0.000170133
0.000263333
-0.000171998
0.000239461
-0.000173389
0.000215774
-0.000174254
0.000192386
-0.000174619
0.000169441
-0.000174548
0.000147117
-0.00017411
0.000125513
-0.000173374
0.000104691
-0.000172404
8.46625e-05
-0.000171258
6.5408e-05
-0.000169995
4.68847e-05
-0.000168679
2.90234e-05
-0.000167382
1.17308e-05
-0.000166188
-5.1276e-06
-0.000165205
-2.1735e-05
-0.00016455
-3.83255e-05
-0.000164362
-5.52007e-05
-0.000164795
-7.27275e-05
-0.000166008
-9.13301e-05
-0.000168145
-0.000111465
-0.000171316
-0.000133577
-0.000175558
-0.000158037
-0.000180817
-0.000185071
-0.000186935
-0.000214707
-0.000193669
-0.000246752
-0.00020075
-0.000280824
-0.000208008
-0.000316463
-0.000215559
-0.000353353
-0.000224041
-0.000391753
-0.000234677
-0.000433212
-0.000248575
-0.000481141
-0.000264629
-0.000539548
-0.000275951
-0.000607164
-0.000266328
-0.000664666
-0.000209687
-0.000664328
-9.38799e-05
-0.000522694
1.85089e-05
-0.000109351
8.02312e-05
-2.20546e-05
0.000196269
-5.44161e-05
0.000333399
-8.43366e-05
0.000416142
-0.000108589
0.000475515
-0.000125531
0.000504195
-0.000135124
0.000502094
-0.000139206
0.000477408
-0.000140388
0.000442285
-0.000140856
0.000405573
-0.000141996
0.000371759
-0.000144221
0.000342182
-0.000147178
0.000315705
-0.000150337
0.00029071
-0.000153265
0.00026626
-0.000155692
0.000241888
-0.000157529
0.000217612
-0.00015878
0.000193637
-0.000159504
0.000170164
-0.000159773
0.000147387
-0.000159664
0.000125403
-0.000159244
0.000104271
-0.000158573
8.39914e-05
-0.000157705
6.454e-05
-0.000156691
4.58708e-05
-0.000155585
2.79175e-05
-0.000154447
1.05928e-05
-0.000153351
-6.22372e-06
-0.000152383
-2.27027e-05
-0.000151646
-3.90629e-05
-0.000151259
-5.55876e-05
-0.00015136
-7.26266e-05
-0.000152098
-9.05924e-05
-0.00015362
-0.000109943
-0.000156052
-0.000131145
-0.000159471
-0.000154618
-0.00016388
-0.000180663
-0.000169186
-0.000209401
-0.000175204
-0.000240734
-0.000181679
-0.00027435
-0.000188351
-0.000309791
-0.000195108
-0.000346596
-0.000202242
-0.000384618
-0.000210766
-0.000424689
-0.000222273
-0.000469634
-0.000237303
-0.000524518
-0.000251539
-0.000592927
-0.000250633
-0.000665573
-0.000214597
-0.000700365
-0.000131987
-0.000605303
1.16356e-05
-0.000252973
9.18668e-05
-1.62817e-05
0.00021255
-4.29514e-05
0.000360069
-6.79488e-05
0.000441139
-8.8074e-05
0.00049564
-0.000102114
0.000518236
-0.0001103
0.00051028
-0.000114384
0.000481492
-0.000116575
0.000444476
-0.000118589
0.000407587
-0.00012137
0.00037454
-0.000124999
0.000345811
-0.00012902
0.000319727
-0.000132956
0.000294646
-0.00013646
0.000269764
-0.000139354
0.000244782
-0.000141607
0.000219865
-0.00014325
0.00019528
-0.000144354
0.000171268
-0.000144993
0.000148026
-0.000145243
0.000125653
-0.000145168
0.000104197
-0.000144826
8.36495e-05
-0.000144267
6.39808e-05
-0.000143536
4.51397e-05
-0.000142679
2.70607e-05
-0.000141745
9.65854e-06
-0.000140799
-7.17001e-06
-0.000139909
-2.35923e-05
-0.000139162
-3.98103e-05
-0.000138659
-5.60902e-05
-0.000138522
-7.27637e-05
-0.000138886
-9.02279e-05
-0.000139896
-0.000108933
-0.000141687
-0.000129354
-0.000144363
-0.000151942
-0.000147966
-0.000177059
-0.000152458
-0.000204909
-0.000157706
-0.000235486
-0.000163498
-0.000268558
-0.000169583
-0.000303705
-0.000175767
-0.000340412
-0.000182106
-0.00037828
-0.000189245
-0.000417549
-0.000198678
-0.000460201
-0.000211827
-0.00051137
-0.00022667
-0.000578084
-0.000233407
-0.000658836
-0.000215268
-0.000718503
-0.000150092
-0.00067048
-6.51683e-06
-0.000396548
8.535e-05
-1.03369e-05
0.000222887
-3.12313e-05
0.000380963
-5.15124e-05
0.00046142
-6.7925e-05
0.000512052
-7.95724e-05
0.000529883
-8.68113e-05
0.000517519
-9.11436e-05
0.000485824
-9.43254e-05
0.000447658
-9.76407e-05
0.000410902
-0.000101678
0.000378577
-0.00010631
0.000350443
-0.000111077
0.000324493
-0.000115575
0.000299144
-0.000119536
0.000273725
-0.000122848
0.000248093
-0.000125507
0.000222524
-0.000127554
0.000197328
-0.000129058
0.000172771
-0.000130087
0.000149056
-0.000130715
0.00012628
-0.000131004
0.000104486
-0.00013101
8.36558e-05
-0.000130781
6.37518e-05
-0.000130359
4.47173e-05
-0.000129783
2.64851e-05
-0.000129091
8.9663e-06
-0.000128343
-7.91824e-06
-0.00012759
-2.4345e-05
-0.000126903
-4.04978e-05
-0.000126367
-5.66265e-05
-0.000126085
-7.30455e-05
-0.000126179
-9.01339e-05
-0.000126783
-0.000108329
-0.000128034
-0.000128103
-0.000130054
-0.000149922
-0.000132924
-0.000174189
-0.000136658
-0.000201175
-0.000141184
-0.00023096
-0.000146339
-0.000263404
-0.000151886
-0.000298158
-0.000157583
-0.000334715
-0.00016333
-0.000372533
-0.000169473
-0.000411406
-0.000177234
-0.00045244
-0.000188659
-0.000499945
-0.000204519
-0.000562224
-0.000218854
-0.0006445
-0.000212301
-0.000725057
-0.00015453
-0.000728251
-3.43161e-05
-0.000516762
5.10339e-05
-4.34164e-06
0.000227229
-1.95423e-05
0.000396164
-3.53468e-05
0.000477224
-4.84208e-05
0.000525127
-5.80438e-05
0.000539506
-6.45929e-05
0.000524068
-6.92413e-05
0.000490473
-7.32815e-05
0.000451699
-7.76021e-05
0.000415223
-8.25259e-05
0.0003835
-8.78293e-05
0.000355747
-9.31006e-05
0.000329764
-9.80089e-05
0.000304053
-0.000102349
0.000278065
-0.000106048
0.000251793
-0.00010911
0.000225585
-0.000111568
0.000199786
-0.000113481
0.000174684
-0.000114912
0.000150486
-0.000115925
0.000127294
-0.000116585
0.000105146
-0.000116947
8.40173e-05
-0.000117058
6.38628e-05
-0.000116959
4.46183e-05
-0.000116685
2.62109e-05
-0.000116268
8.55016e-06
-0.000115755
-8.43204e-06
-0.000115187
-2.49121e-05
-0.000114621
-4.1064e-05
-0.000114126
-5.71221e-05
-0.000113788
-7.33832e-05
-0.000113714
-9.02082e-05
-0.000114025
-0.000108018
-0.000114854
-0.000127274
-0.000116329
-0.000148447
-0.000118552
-0.000171966
-0.000121577
-0.000198151
-0.000125384
-0.000227152
-0.000129875
-0.000258914
-0.000134869
-0.000293164
-0.000140133
-0.00032945
-0.000145464
-0.000367202
-0.000150919
-0.000405952
-0.000157325
-0.000446033
-0.000166844
-0.000490427
-0.000182108
-0.00054696
-0.000200555
-0.000626052
-0.000205643
-0.000719969