/*--------------------------------*- C++ -*----------------------------------*\
| =========                 |                                                 |
| \\      /  F ield         | OpenFOAM: The Open Source CFD Toolbox           |
|  \\    /   O peration     | Version:  2312                                  |
|   \\  /    A nd           | Website:  www.openfoam.com                      |
|    \\/     M anipulation  |                                                 |
\*---------------------------------------------------------------------------*/
FoamFile
{
    version     2.0;
    format      ascii;
    arch        "LSB;label=32;scalar=64";
    class       volVectorField;
    location    "50";
    object      U;
}
// * * * * * * * * * * * * * * * * * * * * * * * * * * * * * * * * * * * * * //

dimensions      [0 1 -1 0 0 0 0];

internalField   nonuniform List<vector> 
2601
(
(-0.000187677 7.05193e-05 0)
(0.000594279 -0.000441506 0)
(0.00268234 -0.000689844 0)
(0.00476143 -0.000593505 0)
(0.00629614 -0.000308314 0)
(0.00704264 -3.0391e-05 0)
(0.00715089 0.000121044 0)
(0.0069507 0.000114204 0)
(0.00676533 -7.45102e-06 0)
(0.00679214 -0.000177452 0)
(0.00705082 -0.000339666 0)
(0.00741396 -0.000458102 0)
(0.00768863 -0.000490592 0)
(0.00776043 -0.000378737 0)
(0.0074588 -0.000277886 0)
(0.00654262 -0.000958797 0)
(0.00461929 -0.00242783 0)
(0.000866551 -0.00337973 0)
(-0.00601347 -0.00248375 0)
(-0.0166593 0.000845453 0)
(-0.0313269 0.00524018 0)
(-0.0494101 0.00889208 0)
(-0.0688322 0.0108011 0)
(-0.0874205 0.0111215 0)
(-0.103775 0.0103482 0)
(-0.116977 0.00884885 0)
(-0.126419 0.0068778 0)
(-0.131703 0.00465228 0)
(-0.132544 0.0023301 0)
(-0.128603 -0.000123555 0)
(-0.119439 -0.00273543 0)
(-0.105163 -0.00540746 0)
(-0.0857475 -0.00801889 0)
(-0.0617314 -0.0103299 0)
(-0.034003 -0.0120573 0)
(-0.00411973 -0.0129311 0)
(0.0260702 -0.0128841 0)
(0.0539491 -0.0107349 0)
(0.0768158 -0.00686289 0)
(0.0919202 -0.00156606 0)
(0.0975781 0.00418247 0)
(0.093287 0.00897759 0)
(0.0791779 0.0122813 0)
(0.0582265 0.013021 0)
(0.0360544 0.0101534 0)
(0.0183908 0.0052075 0)
(0.00731196 0.0012952 0)
(0.00160774 -0.000492067 0)
(-0.000602562 -0.000946381 0)
(-0.00111896 -0.000977903 0)
(-0.000572941 -0.000887142 0)
(6.69476e-05 -0.000457633 0)
(0.00212728 -0.0026379 0)
(0.00626735 -0.00360855 0)
(0.0102119 -0.00320752 0)
(0.0131727 -0.00202995 0)
(0.0148138 -0.000796007 0)
(0.0153017 3.68288e-05 0)
(0.0150616 0.000328002 0)
(0.0145103 0.000186657 0)
(0.0138347 -0.000116751 0)
(0.0129118 -0.000292557 0)
(0.0113641 -0.000163659 0)
(0.00864769 0.000232579 0)
(0.00393383 0.000595924 0)
(-0.00458175 0.00136108 0)
(-0.0186457 0.00380062 0)
(-0.0392742 0.00872332 0)
(-0.0662325 0.0152772 0)
(-0.0962742 0.021902 0)
(-0.125007 0.0270808 0)
(-0.150985 0.0299204 0)
(-0.173586 0.0303482 0)
(-0.192593 0.0285987 0)
(-0.207756 0.0252034 0)
(-0.219025 0.0206021 0)
(-0.226249 0.0151578 0)
(-0.229312 0.00910606 0)
(-0.228093 0.00260141 0)
(-0.222595 -0.00430949 0)
(-0.21277 -0.011564 0)
(-0.198174 -0.0191035 0)
(-0.178872 -0.0267436 0)
(-0.154714 -0.034133 0)
(-0.12609 -0.0406912 0)
(-0.093594 -0.0456535 0)
(-0.0583142 -0.0481532 0)
(-0.021018 -0.0474387 0)
(0.0151047 -0.0427677 0)
(0.0476846 -0.033352 0)
(0.0739633 -0.0194692 0)
(0.0917819 -0.00405944 0)
(0.100582 0.0102044 0)
(0.100456 0.0214759 0)
(0.0920727 0.0286494 0)
(0.0768444 0.0300314 0)
(0.0572339 0.0251207 0)
(0.0372665 0.0166593 0)
(0.0208995 0.00886791 0)
(0.00993445 0.00385121 0)
(0.00336037 0.00107862 0)
(0.000456219 -0.000719535 0)
(0.0002857 -0.00191103 0)
(0.00342267 -0.00665949 0)
(0.00894719 -0.00843197 0)
(0.0136581 -0.00731321 0)
(0.0168319 -0.00470024 0)
(0.0182915 -0.00199607 0)
(0.0183238 -3.06792e-05 0)
(0.0173354 0.000962056 0)
(0.0155855 0.00126191 0)
(0.0129513 0.00148307 0)
(0.00877809 0.00221014 0)
(0.00178712 0.00377547 0)
(-0.0100866 0.0069367 0)
(-0.0291813 0.013507 0)
(-0.0568258 0.024096 0)
(-0.0904048 0.0357331 0)
(-0.124827 0.0447905 0)
(-0.156895 0.0503444 0)
(-0.185573 0.0530384 0)
(-0.209982 0.0532424 0)
(-0.230182 0.0512638 0)
(-0.24631 0.0472571 0)
(-0.258803 0.0415421 0)
(-0.267939 0.0344648 0)
(-0.274014 0.0263592 0)
(-0.277097 0.017462 0)
(-0.277259 0.00789258 0)
(-0.274481 -0.00235274 0)
(-0.268668 -0.0133169 0)
(-0.259711 -0.0249221 0)
(-0.24729 -0.037045 0)
(-0.231155 -0.0494226 0)
(-0.211 -0.0615385 0)
(-0.186748 -0.0725482 0)
(-0.158533 -0.0812332 0)
(-0.126788 -0.086096 0)
(-0.0920564 -0.0857594 0)
(-0.0558262 -0.0794707 0)
(-0.0194809 -0.0652764 0)
(0.0123973 -0.0448426 0)
(0.0378208 -0.0210505 0)
(0.0555324 0.00141114 0)
(0.0658227 0.0199039 0)
(0.0700137 0.0335177 0)
(0.0680139 0.0410005 0)
(0.059532 0.0411149 0)
(0.0461121 0.0348503 0)
(0.0310319 0.025415 0)
(0.0177291 0.0161776 0)
(0.00739174 0.00894654 0)
(0.00144579 0.00281408 0)
(0.000603194 -0.00404662 0)
(0.00497923 -0.0118354 0)
(0.0115492 -0.0139131 0)
(0.0162053 -0.0113157 0)
(0.0185688 -0.00672685 0)
(0.0188047 -0.00225382 0)
(0.017356 0.00105365 0)
(0.0145176 0.00311107 0)
(0.0100883 0.00461304 0)
(0.00296256 0.00672984 0)
(-0.00897894 0.0109303 0)
(-0.0285757 0.0193542 0)
(-0.0576183 0.0329459 0)
(-0.0932034 0.0484592 0)
(-0.130028 0.0615328 0)
(-0.164754 0.0706003 0)
(-0.195579 0.0756058 0)
(-0.221692 0.0770251 0)
(-0.243122 0.0754687 0)
(-0.2602 0.0715361 0)
(-0.273474 0.0656455 0)
(-0.283462 0.0581867 0)
(-0.290716 0.0494849 0)
(-0.295618 0.0398287 0)
(-0.298493 0.02941 0)
(-0.299489 0.0183154 0)
(-0.298731 0.00650356 0)
(-0.296223 -0.00612126 0)
(-0.291873 -0.0196326 0)
(-0.285505 -0.0340965 0)
(-0.276838 -0.0494404 0)
(-0.265532 -0.0654333 0)
(-0.251155 -0.0815586 0)
(-0.233286 -0.0968734 0)
(-0.211571 -0.109899 0)
(-0.185786 -0.118627 0)
(-0.155789 -0.12085 0)
(-0.12194 -0.114765 0)
(-0.0855694 -0.0989939 0)
(-0.0496722 -0.0743815 0)
(-0.0177632 -0.043936 0)
(0.00616475 -0.0150732 0)
(0.0221584 0.00895185 0)
(0.0333807 0.0276674 0)
(0.0406238 0.0407985 0)
(0.0420751 0.0466709 0)
(0.0374593 0.0448001 0)
(0.0285469 0.0373189 0)
(0.018267 0.027534 0)
(0.00834065 0.0180269 0)
(0.00172853 0.00784341 0)
(0.00118293 -0.00724251 0)
(0.00697471 -0.0182693 0)
(0.0139742 -0.0196118 0)
(0.017683 -0.0144628 0)
(0.0183009 -0.00723242 0)
(0.0163666 -0.000634957 0)
(0.0123567 0.0043386 0)
(0.00604721 0.00827052 0)
(-0.00396383 0.0128897 0)
(-0.0205239 0.0209178 0)
(-0.0465361 0.0348031 0)
(-0.0813203 0.0532758 0)
(-0.119862 0.0713968 0)
(-0.157061 0.0855451 0)
(-0.190127 0.0946467 0)
(-0.218021 0.0989095 0)
(-0.240742 0.099092 0)
(-0.258587 0.0960096 0)
(-0.272133 0.0904175 0)
(-0.282001 0.0828971 0)
(-0.288876 0.0739429 0)
(-0.293369 0.063943 0)
(-0.29603 0.0531858 0)
(-0.297279 0.0418657 0)
(-0.297457 0.0300542 0)
(-0.296791 0.0177121 0)
(-0.295439 0.00469117 0)
(-0.293457 -0.00917005 0)
(-0.290764 -0.0239949 0)
(-0.287275 -0.0399607 0)
(-0.282803 -0.0571408 0)
(-0.27705 -0.0754742 0)
(-0.269564 -0.0945891 0)
(-0.259732 -0.113676 0)
(-0.246791 -0.131268 0)
(-0.22983 -0.145146 0)
(-0.207811 -0.15244 0)
(-0.179788 -0.150221 0)
(-0.145714 -0.136083 0)
(-0.107175 -0.109533 0)
(-0.0682931 -0.0737026 0)
(-0.0356246 -0.0367271 0)
(-0.013766 -0.00643204 0)
(0.000549628 0.0161948 0)
(0.0121923 0.03351 0)
(0.0199107 0.0445635 0)
(0.0221775 0.0477106 0)
(0.0193989 0.043892 0)
(0.0135799 0.0357808 0)
(0.00637045 0.025791 0)
(0.00119391 0.0123831 0)
(0.00209935 -0.011861 0)
(0.00906687 -0.0255941 0)
(0.0153769 -0.0245986 0)
(0.0171091 -0.0157527 0)
(0.0151015 -0.00526821 0)
(0.0100444 0.00382792 0)
(0.00196128 0.0113853 0)
(-0.0105914 0.0195366 0)
(-0.030681 0.0317287 0)
(-0.0605043 0.0500537 0)
(-0.0978516 0.0720022 0)
(-0.137037 0.0922641 0)
(-0.173097 0.107381 0)
(-0.203708 0.11656 0)
(-0.228382 0.120258 0)
(-0.247317 0.119306 0)
(-0.261194 0.11473 0)
(-0.270733 0.10749 0)
(-0.276777 0.0984072 0)
(-0.280065 0.0880834 0)
(-0.281328 0.0769823 0)
(-0.281154 0.065408 0)
(-0.28006 0.0535558 0)
(-0.278433 0.0415011 0)
(-0.276598 0.0292209 0)
(-0.27478 0.0166008 0)
(-0.273116 0.00345822 0)
(-0.27161 -0.0104092 0)
(-0.270231 -0.0252177 0)
(-0.269027 -0.0412506 0)
(-0.267944 -0.0587203 0)
(-0.266862 -0.0777566 0)
(-0.265499 -0.0982552 0)
(-0.263356 -0.119733 0)
(-0.25962 -0.141083 0)
(-0.253032 -0.160325 0)
(-0.24185 -0.174476 0)
(-0.2239 -0.179795 0)
(-0.197304 -0.172485 0)
(-0.161321 -0.149818 0)
(-0.11813 -0.112599 0)
(-0.0746966 -0.0676395 0)
(-0.0412973 -0.0269118 0)
(-0.0220922 0.00178677 0)
(-0.00933037 0.0224264 0)
(0.00105179 0.0376197 0)
(0.0073579 0.0455245 0)
(0.00907095 0.0457857 0)
(0.00722313 0.0403495 0)
(0.00323195 0.030888 0)
(0.000345956 0.0152133 0)
(0.00320013 -0.0179931 0)
(0.0103746 -0.0328126 0)
(0.0145584 -0.0276391 0)
(0.0132857 -0.0141786 0)
(0.00772561 2.87017e-05 0)
(-0.00171169 0.0125235 0)
(-0.0161571 0.0251094 0)
(-0.0382736 0.0413785 0)
(-0.0696276 0.0632851 0)
(-0.107491 0.0880718 0)
(-0.146055 0.110371 0)
(-0.180368 0.12659 0)
(-0.208378 0.136004 0)
(-0.229806 0.139179 0)
(-0.245116 0.137175 0)
(-0.255145 0.131211 0)
(-0.260883 0.122456 0)
(-0.263279 0.111899 0)
(-0.263267 0.100307 0)
(-0.26161 0.088209 0)
(-0.258985 0.0759539 0)
(-0.255875 0.0637193 0)
(-0.252685 0.0515737 0)
(-0.24967 0.0394826 0)
(-0.247044 0.0273497 0)
(-0.244924 0.0150292 0)
(-0.243373 0.00235389 0)
(-0.242338 -0.0108845 0)
(-0.241871 -0.0249935 0)
(-0.242009 -0.0402629 0)
(-0.242832 -0.0569762 0)
(-0.244372 -0.0753633 0)
(-0.246642 -0.0955513 0)
(-0.249477 -0.11743 0)
(-0.252452 -0.140442 0)
(-0.254563 -0.163275 0)
(-0.254044 -0.183558 0)
(-0.24816 -0.197665 0)
(-0.233583 -0.201002 0)
(-0.207275 -0.188801 0)
(-0.16801 -0.158227 0)
(-0.119115 -0.111468 0)
(-0.0709252 -0.0586967 0)
(-0.0376746 -0.0161343 0)
(-0.0218269 0.0100287 0)
(-0.0113038 0.0283648 0)
(-0.00336155 0.0402291 0)
(0.00078927 0.0443493 0)
(0.00169397 0.0417306 0)
(0.00045628 0.0331341 0)
(-0.000309069 0.0160783 0)
(0.00399765 -0.0250614 0)
(0.00977908 -0.0383407 0)
(0.0104408 -0.0274038 0)
(0.00516818 -0.0087194 0)
(-0.00495502 0.00988379 0)
(-0.0204173 0.027865 0)
(-0.043124 0.0483373 0)
(-0.0742613 0.0733728 0)
(-0.111247 0.100733 0)
(-0.148521 0.125212 0)
(-0.181034 0.142901 0)
(-0.206628 0.152837 0)
(-0.225215 0.155738 0)
(-0.237375 0.152865 0)
(-0.244153 0.145686 0)
(-0.246709 0.13559 0)
(-0.246188 0.123741 0)
(-0.243617 0.111026 0)
(-0.239864 0.0980513 0)
(-0.235588 0.0851908 0)
(-0.231279 0.0726389 0)
(-0.227238 0.0604446 0)
(-0.223667 0.0485624 0)
(-0.22066 0.0368762 0)
(-0.21829 0.0252347 0)
(-0.216563 0.013467 0)
(-0.215473 0.00139697 0)
(-0.214976 -0.011186 0)
(-0.215168 -0.0245623 0)
(-0.216038 -0.0389728 0)
(-0.217718 -0.054667 0)
(-0.220285 -0.0718653 0)
(-0.223906 -0.0907569 0)
(-0.228659 -0.111442 0)
(-0.234543 -0.133819 0)
(-0.241195 -0.157352 0)
(-0.247559 -0.180719 0)
(-0.251417 -0.201378 0)
(-0.249265 -0.215296 0)
(-0.236734 -0.217071 0)
(-0.209823 -0.200995 0)
(-0.166921 -0.163668 0)
(-0.112295 -0.107891 0)
(-0.059632 -0.0473651 0)
(-0.0281185 -0.00418287 0)
(-0.0165922 0.018997 0)
(-0.0088416 0.033629 0)
(-0.00388697 0.0410248 0)
(-0.00163799 0.0408992 0)
(-0.00114357 0.0332111 0)
(-0.000572772 0.0155649 0)
(0.00389117 -0.0315618 0)
(0.00653445 -0.040277 0)
(0.00255528 -0.0226859 0)
(-0.00762076 0.00168039 0)
(-0.023245 0.0259991 0)
(-0.0454668 0.0512262 0)
(-0.0751388 0.0794323 0)
(-0.110272 0.109353 0)
(-0.145874 0.136317 0)
(-0.176802 0.156042 0)
(-0.200479 0.167069 0)
(-0.216826 0.170138 0)
(-0.226575 0.166756 0)
(-0.230855 0.158624 0)
(-0.231051 0.147402 0)
(-0.228427 0.13443 0)
(-0.224147 0.120728 0)
(-0.2191 0.106975 0)
(-0.213938 0.0935805 0)
(-0.209067 0.0807387 0)
(-0.204716 0.0684922 0)
(-0.200989 0.0567789 0)
(-0.197916 0.0454698 0)
(-0.195486 0.0343987 0)
(-0.193686 0.0233864 0)
(-0.192487 0.0122475 0)
(-0.191871 0.000785707 0)
(-0.191822 -0.0112095 0)
(-0.19244 -0.0239604 0)
(-0.193717 -0.0376767 0)
(-0.19579 -0.0525513 0)
(-0.198736 -0.0687529 0)
(-0.202734 -0.0864197 0)
(-0.207934 -0.105648 0)
(-0.214485 -0.126473 0)
(-0.222372 -0.148769 0)
(-0.231215 -0.172045 0)
(-0.239887 -0.195104 0)
(-0.246012 -0.215514 0)
(-0.245701 -0.229093 0)
(-0.233955 -0.229773 0)
(-0.20592 -0.210596 0)
(-0.159342 -0.166715 0)
(-0.0990293 -0.100972 0)
(-0.0425464 -0.0322391 0)
(-0.0162627 0.00861145 0)
(-0.00964839 0.0276047 0)
(-0.00489356 0.0372529 0)
(-0.00245377 0.0390548 0)
(-0.0013454 0.0321948 0)
(-0.0004421 0.0145658 0)
(0.00269837 -0.035323 0)
(0.000708677 -0.0371358 0)
(-0.00874395 -0.0125639 0)
(-0.0240794 0.01789 0)
(-0.0452644 0.0486518 0)
(-0.072842 0.080568 0)
(-0.105493 0.113315 0)
(-0.13918 0.143182 0)
(-0.168821 0.165675 0)
(-0.191253 0.17864 0)
(-0.206094 0.182565 0)
(-0.214227 0.179205 0)
(-0.216831 0.170517 0)
(-0.215428 0.158431 0)
(-0.211467 0.144537 0)
(-0.206154 0.129985 0)
(-0.200446 0.115568 0)
(-0.194914 0.101719 0)
(-0.189918 0.0886407 0)
(-0.18559 0.0763454 0)
(-0.181963 0.0647463 0)
(-0.178993 0.053698 0)
(-0.176625 0.0430322 0)
(-0.174804 0.0325737 0)
(-0.173495 0.0221503 0)
(-0.172682 0.0115932 0)
(-0.17236 0.000720511 0)
(-0.172538 -0.0106615 0)
(-0.173328 -0.022757 0)
(-0.174736 -0.0357566 0)
(-0.176887 -0.0498397 0)
(-0.179863 -0.065148 0)
(-0.18382 -0.0818012 0)
(-0.188918 -0.0998717 0)
(-0.195334 -0.119385 0)
(-0.203167 -0.1403 0)
(-0.212319 -0.162446 0)
(-0.222275 -0.185365 0)
(-0.231799 -0.207962 0)
(-0.238483 -0.22794 0)
(-0.238409 -0.24103 0)
(-0.226231 -0.240464 0)
(-0.196377 -0.2177 0)
(-0.145881 -0.165842 0)
(-0.0798203 -0.0878569 0)
(-0.0218923 -0.0121958 0)
(-0.00609965 0.0218306 0)
(-0.00297948 0.0340744 0)
(-0.00113267 0.0373068 0)
(-0.000441224 0.0312058 0)
(-6.63225e-05 0.0138719 0)
(0.000537807 -0.0346734 0)
(-0.00686893 -0.0284318 0)
(-0.0218598 0.00312354 0)
(-0.0418988 0.0394873 0)
(-0.0673782 0.0758613 0)
(-0.0973896 0.111978 0)
(-0.129021 0.145239 0)
(-0.157673 0.171324 0)
(-0.179591 0.187304 0)
(-0.193765 0.193063 0)
(-0.201073 0.190439 0)
(-0.202803 0.181726 0)
(-0.2005 0.169114 0)
(-0.195811 0.15451 0)
(-0.190012 0.13926 0)
(-0.184067 0.124268 0)
(-0.178552 0.110033 0)
(-0.173724 0.0967263 0)
(-0.169678 0.0843438 0)
(-0.166347 0.0727547 0)
(-0.163651 0.0618072 0)
(-0.161479 0.0513308 0)
(-0.15976 0.0411705 0)
(-0.158432 0.0311719 0)
(-0.157474 0.0211874 0)
(-0.156882 0.0110704 0)
(-0.156691 0.000664631 0)
(-0.156941 -0.0102146 0)
(-0.157738 -0.021746 0)
(-0.1591 -0.0340953 0)
(-0.161127 -0.0474228 0)
(-0.163886 -0.0618526 0)
(-0.167493 -0.0774764 0)
(-0.172081 -0.0943595 0)
(-0.177825 -0.112544 0)
(-0.184904 -0.132065 0)
(-0.193417 -0.152927 0)
(-0.203212 -0.175027 0)
(-0.213634 -0.197943 0)
(-0.223253 -0.220537 0)
(-0.229534 -0.240334 0)
(-0.228493 -0.252634 0)
(-0.214595 -0.249747 0)
(-0.181817 -0.221265 0)
(-0.126429 -0.157943 0)
(-0.0537986 -0.0647081 0)
(-0.003458 0.00895625 0)
(-5.8893e-06 0.0321168 0)
(0.00146017 0.0364702 0)
(0.00114235 0.0311702 0)
(0.000404914 0.0140601 0)
(-0.00215163 -0.028984 0)
(-0.014764 -0.0142741 0)
(-0.034648 0.0236699 0)
(-0.0581968 0.0647573 0)
(-0.085924 0.104803 0)
(-0.115555 0.141953 0)
(-0.143449 0.172412 0)
(-0.165557 0.192596 0)
(-0.179986 0.20145 0)
(-0.187295 0.200521 0)
(-0.188905 0.192451 0)
(-0.186371 0.179763 0)
(-0.18144 0.164687 0)
(-0.175568 0.148888 0)
(-0.169697 0.133401 0)
(-0.164435 0.118811 0)
(-0.159987 0.105279 0)
(-0.156369 0.0927597 0)
(-0.153477 0.0811024 0)
(-0.15115 0.0701243 0)
(-0.149268 0.0596705 0)
(-0.147715 0.0495945 0)
(-0.14644 0.039779 0)
(-0.145406 0.0301046 0)
(-0.144619 0.020453 0)
(-0.144097 0.0106888 0)
(-0.143908 0.000666297 0)
(-0.144113 -0.00978413 0)
(-0.14481 -0.0208219 0)
(-0.146052 -0.0326199 0)
(-0.14792 -0.0453278 0)
(-0.150465 -0.059068 0)
(-0.153747 -0.0739041 0)
(-0.157828 -0.0898521 0)
(-0.162793 -0.106895 0)
(-0.168778 -0.125034 0)
(-0.175964 -0.144348 0)
(-0.184512 -0.165 0)
(-0.194346 -0.18711 0)
(-0.204785 -0.210405 0)
(-0.214171 -0.233588 0)
(-0.219603 -0.253544 0)
(-0.216742 -0.264482 0)
(-0.19985 -0.257157 0)
(-0.162793 -0.21889 0)
(-0.101104 -0.138449 0)
(-0.0206743 -0.0272383 0)
(0.00435187 0.0275275 0)
(0.00347185 0.0366159 0)
(0.00286909 0.0323157 0)
(0.000882722 0.015343 0)
(-0.00469211 -0.0183753 0)
(-0.0214851 0.00478182 0)
(-0.0449103 0.0474683 0)
(-0.0706878 0.0916961 0)
(-0.098729 0.133016 0)
(-0.125974 0.168373 0)
(-0.148813 0.193873 0)
(-0.164441 0.207281 0)
(-0.172664 0.20932 0)
(-0.174895 0.202746 0)
(-0.172781 0.190556 0)
(-0.168066 0.17532 0)
(-0.16241 0.159101 0)
(-0.156851 0.14319 0)
(-0.151971 0.128245 0)
(-0.148014 0.114478 0)
(-0.144901 0.101782 0)
(-0.142497 0.0899857 0)
(-0.140595 0.0788833 0)
(-0.139036 0.0683136 0)
(-0.137704 0.0581537 0)
(-0.136522 0.048303 0)
(-0.135468 0.0386823 0)
(-0.134539 0.0292065 0)
(-0.133765 0.0197855 0)
(-0.133188 0.0103023 0)
(-0.132889 0.000626196 0)
(-0.13294 -0.00939124 0)
(-0.133443 -0.0199232 0)
(-0.134473 -0.0311449 0)
(-0.136113 -0.0432235 0)
(-0.138418 -0.056301 0)
(-0.141432 -0.0704642 0)
(-0.145173 -0.0857318 0)
(-0.149648 -0.102053 0)
(-0.154877 -0.119342 0)
(-0.160927 -0.137555 0)
(-0.167956 -0.156789 0)
(-0.176178 -0.177351 0)
(-0.185646 -0.199631 0)
(-0.195744 -0.223577 0)
(-0.204608 -0.247691 0)
(-0.20878 -0.267794 0)
(-0.203213 -0.276121 0)
(-0.181781 -0.260772 0)
(-0.138257 -0.206166 0)
(-0.0673673 -0.101922 0)
(0.00638978 0.00949769 0)
(0.00426884 0.0372426 0)
(0.00390564 0.0341429 0)
(0.00140477 0.0176165 0)
(-0.00635718 -0.0038098 0)
(-0.0262478 0.0274998 0)
(-0.05193 0.0730864 0)
(-0.0783951 0.118562 0)
(-0.105225 0.158885 0)
(-0.128928 0.190427 0)
(-0.146526 0.209842 0)
(-0.156653 0.216449 0)
(-0.160303 0.21253 0)
(-0.159249 0.201554 0)
(-0.155245 0.186588 0)
(-0.150053 0.170094 0)
(-0.144963 0.153782 0)
(-0.140565 0.138471 0)
(-0.137121 0.124416 0)
(-0.13456 0.111513 0)
(-0.132656 0.0995167 0)
(-0.131209 0.0882173 0)
(-0.13001 0.0774316 0)
(-0.128946 0.0670538 0)
(-0.127937 0.057006 0)
(-0.126954 0.0472352 0)
(-0.126002 0.0376922 0)
(-0.125101 0.0283194 0)
(-0.124297 0.019046 0)
(-0.123639 0.00977446 0)
(-0.123203 0.000385477 0)
(-0.123079 -0.00925629 0)
(-0.123367 -0.0193232 0)
(-0.124141 -0.0299934 0)
(-0.12549 -0.0414454 0)
(-0.127475 -0.0538394 0)
(-0.130138 -0.06729 0)
(-0.133487 -0.0818468 0)
(-0.137508 -0.0974856 0)
(-0.142173 -0.114123 0)
(-0.147471 -0.131664 0)
(-0.153451 -0.150081 0)
(-0.160266 -0.169525 0)
(-0.168158 -0.190411 0)
(-0.177228 -0.213295 0)
(-0.186851 -0.238232 0)
(-0.194897 -0.263314 0)
(-0.197228 -0.282783 0)
(-0.187898 -0.285841 0)
(-0.160437 -0.256532 0)
(-0.107929 -0.175557 0)
(-0.0178464 -0.0355963 0)
(0.00901559 0.0355464 0)
(0.00274577 0.0363223 0)
(0.00202822 0.0203283 0)
(-0.00720686 0.0133262 0)
(-0.0287934 0.0518996 0)
(-0.0554501 0.0989768 0)
(-0.0813417 0.144038 0)
(-0.105905 0.181671 0)
(-0.12564 0.208184 0)
(-0.138571 0.221141 0)
(-0.144535 0.221489 0)
(-0.1452 0.212714 0)
(-0.142443 0.198582 0)
(-0.138033 0.182054 0)
(-0.13351 0.165321 0)
(-0.129673 0.149585 0)
(-0.12675 0.135169 0)
(-0.124735 0.121994 0)
(-0.12336 0.109765 0)
(-0.122376 0.0982116 0)
(-0.121585 0.0871545 0)
(-0.120836 0.076473 0)
(-0.120071 0.0661212 0)
(-0.119249 0.0560636 0)
(-0.118381 0.0462833 0)
(-0.117484 0.0367513 0)
(-0.116594 0.0274289 0)
(-0.115758 0.0182574 0)
(-0.115033 0.009155 0)
(-0.114484 1.10078e-05 0)
(-0.1142 -0.00931083 0)
(-0.114279 -0.0189651 0)
(-0.114804 -0.0291383 0)
(-0.115864 -0.0400211 0)
(-0.117529 -0.0517953 0)
(-0.119843 -0.0646033 0)
(-0.122811 -0.0785212 0)
(-0.126398 -0.0935414 0)
(-0.130541 -0.109579 0)
(-0.135181 -0.126513 0)
(-0.140307 -0.144264 0)
(-0.146016 -0.162901 0)
(-0.152538 -0.18274 0)
(-0.160178 -0.20438 0)
(-0.168991 -0.228477 0)
(-0.178095 -0.254878 0)
(-0.184822 -0.280651 0)
(-0.18418 -0.297522 0)
(-0.169238 -0.290283 0)
(-0.132879 -0.237265 0)
(-0.0669735 -0.119105 0)
(0.014217 0.0187659 0)
(0.000896702 0.0400903 0)
(0.0021546 0.0225021 0)
(-0.00740733 0.0315925 0)
(-0.0294365 0.0766793 0)
(-0.0557983 0.124012 0)
(-0.0800962 0.167398 0)
(-0.101801 0.201255 0)
(-0.117745 0.222149 0)
(-0.126945 0.228831 0)
(-0.130069 0.223788 0)
(-0.129106 0.211296 0)
(-0.125896 0.195132 0)
(-0.12209 0.178014 0)
(-0.118835 0.161708 0)
(-0.116468 0.146826 0)
(-0.114967 0.13328 0)
(-0.114134 0.120772 0)
(-0.113641 0.108942 0)
(-0.113285 0.0975771 0)
(-0.112913 0.0865555 0)
(-0.112446 0.0758302 0)
(-0.111868 0.0654013 0)
(-0.111172 0.0552656 0)
(-0.110389 0.0454266 0)
(-0.109542 0.0358668 0)
(-0.108674 0.026559 0)
(-0.107826 0.0174527 0)
(-0.107055 0.0084777 0)
(-0.106419 -0.000463791 0)
(-0.106 -0.00950018 0)
(-0.105884 -0.01878 0)
(-0.10616 -0.0284861 0)
(-0.106918 -0.0388187 0)
(-0.108241 -0.0499811 0)
(-0.110186 -0.0621526 0)
(-0.112775 -0.0754576 0)
(-0.115984 -0.0899353 0)
(-0.119736 -0.105525 0)
(-0.123926 -0.122082 0)
(-0.128459 -0.139434 0)
(-0.133324 -0.157501 0)
(-0.138683 -0.176453 0)
(-0.144908 -0.196856 0)
(-0.152425 -0.219635 0)
(-0.161184 -0.245558 0)
(-0.169738 -0.273784 0)
(-0.174455 -0.299153 0)
(-0.169213 -0.309166 0)
(-0.146606 -0.282717 0)
(-0.0987972 -0.192525 0)
(0.000499924 -0.0219761 0)
(0.00860625 0.0434994 0)
(-0.00127508 0.0250575 0)
(-0.00697113 0.0497048 0)
(-0.0283323 0.10075 0)
(-0.0534204 0.147475 0)
(-0.0754953 0.188354 0)
(-0.0942072 0.217827 0)
(-0.106874 0.233002 0)
(-0.11333 0.233975 0)
(-0.114745 0.224532 0)
(-0.113198 0.209375 0)
(-0.110397 0.192098 0)
(-0.107744 0.175067 0)
(-0.105926 0.159502 0)
(-0.104943 0.145459 0)
(-0.104619 0.132576 0)
(-0.104661 0.120455 0)
(-0.104776 0.108767 0)
(-0.104835 0.0973853 0)
(-0.104737 0.0862555 0)
(-0.104466 0.0753924 0)
(-0.104031 0.0648249 0)
(-0.10345 0.0545708 0)
(-0.102759 0.0446419 0)
(-0.101986 0.0350265 0)
(-0.101171 0.0257028 0)
(-0.100352 0.0166266 0)
(-0.0995789 0.00773625 0)
(-0.0989028 -0.00105659 0)
(-0.0983948 -0.00986706 0)
(-0.0981317 -0.0188379 0)
(-0.0981968 -0.0281448 0)
(-0.0986785 -0.0379883 0)
(-0.0996615 -0.0485819 0)
(-0.101215 -0.0601286 0)
(-0.103377 -0.0727916 0)
(-0.106147 -0.0866627 0)
(-0.109469 -0.101739 0)
(-0.113247 -0.117918 0)
(-0.117355 -0.135022 0)
(-0.121695 -0.15287 0)
(-0.126276 -0.171405 0)
(-0.131325 -0.190912 0)
(-0.137338 -0.212241 0)
(-0.144825 -0.236715 0)
(-0.153474 -0.265117 0)
(-0.160972 -0.295114 0)
(-0.162394 -0.317303 0)
(-0.150462 -0.311961 0)
(-0.116279 -0.24801 0)
(-0.0424949 -0.0939821 0)
(0.0155832 0.0424286 0)
(-0.0100827 0.0281715 0)
(-0.00605955 0.0667771 0)
(-0.0258641 0.123352 0)
(-0.0489614 0.168899 0)
(-0.068512 0.206788 0)
(-0.0843773 0.231684 0)
(-0.094393 0.241441 0)
(-0.0989791 0.23749 0)
(-0.0995551 0.224623 0)
(-0.0981462 0.207692 0)
(-0.0962445 0.18998 0)
(-0.0949169 0.173422 0)
(-0.0944385 0.15864 0)
(-0.0946047 0.145255 0)
(-0.0951678 0.132772 0)
(-0.0958178 0.120776 0)
(-0.0963485 0.109031 0)
(-0.0966926 0.0974914 0)
(-0.0967998 0.0861665 0)
(-0.0966952 0.0751141 0)
(-0.0963987 0.0643777 0)
(-0.0959444 0.0539867 0)
(-0.0953668 0.0439531 0)
(-0.0946952 0.0342676 0)
(-0.0939653 0.0249098 0)
(-0.0932099 0.0158401 0)
(-0.0924716 0.00700358 0)
(-0.0917959 -0.00167932 0)
(-0.0912426 -0.0103143 0)
(-0.0908784 -0.0190351 0)
(-0.0907802 -0.0280097 0)
(-0.091031 -0.0374368 0)
(-0.0917161 -0.0475357 0)
(-0.0929115 -0.0585282 0)
(-0.0946713 -0.0706088 0)
(-0.0970118 -0.0839107 0)
(-0.0999001 -0.0984746 0)
(-0.103252 -0.114235 0)
(-0.106948 -0.131035 0)
(-0.110864 -0.148674 0)
(-0.114936 -0.167004 0)
(-0.119253 -0.186085 0)
(-0.124155 -0.206435 0)
(-0.13023 -0.229276 0)
(-0.137881 -0.256264 0)
(-0.146148 -0.28767 0)
(-0.151478 -0.318129 0)
(-0.147237 -0.331279 0)
(-0.125045 -0.29689 0)
(-0.0767329 -0.178285 0)
(0.0164631 0.0206136 0)
(-0.00902687 0.0297077 0)
(-0.00482154 0.0819589 0)
(-0.0224403 0.143864 0)
(-0.0430816 0.18799 0)
(-0.060034 0.22273 0)
(-0.0733405 0.243205 0)
(-0.0813018 0.248107 0)
(-0.0847164 0.240088 0)
(-0.0850667 0.224673 0)
(-0.0842234 0.206668 0)
(-0.0834078 0.188972 0)
(-0.0833322 0.173033 0)
(-0.0839678 0.158911 0)
(-0.085014 0.145951 0)
(-0.0862079 0.133617 0)
(-0.0872791 0.121546 0)
(-0.0881098 0.109605 0)
(-0.0886768 0.0978241 0)
(-0.0889677 0.0862582 0)
(-0.0890285 0.074991 0)
(-0.0888841 0.064072 0)
(-0.0885763 0.0535339 0)
(-0.0881352 0.043385 0)
(-0.0875911 0.0336162 0)
(-0.0869735 0.0242066 0)
(-0.0863116 0.0151199 0)
(-0.0856407 0.00630651 0)
(-0.0850002 -0.00230527 0)
(-0.08444 -0.0108115 0)
(-0.0840169 -0.0193371 0)
(-0.0837982 -0.0280401 0)
(-0.0838594 -0.0371122 0)
(-0.0842815 -0.0467723 0)
(-0.0851439 -0.0572529 0)
(-0.086513 -0.0687749 0)
(-0.0884273 -0.0815145 0)
(-0.0908824 -0.095567 0)
(-0.0938209 -0.110919 0)
(-0.0971335 -0.127444 0)
(-0.100679 -0.144924 0)
(-0.104337 -0.163132 0)
(-0.108091 -0.181968 0)
(-0.112152 -0.20171 0)
(-0.117037 -0.223335 0)
(-0.123411 -0.248651 0)
(-0.131249 -0.279319 0)
(-0.138382 -0.313328 0)
(-0.139433 -0.338645 0)
(-0.127159 -0.327788 0)
(-0.0919728 -0.236894 0)
(0.00363739 -0.0163155 0)
(0.0112223 0.0358208 0)
(-0.00338822 0.0946549 0)
(-0.0184217 0.161824 0)
(-0.0363512 0.204582 0)
(-0.0507665 0.236291 0)
(-0.0618366 0.252754 0)
(-0.0682602 0.253508 0)
(-0.0710183 0.242266 0)
(-0.071523 0.225042 0)
(-0.0714349 0.206471 0)
(-0.0716823 0.189047 0)
(-0.0726609 0.173711 0)
(-0.0741536 0.160062 0)
(-0.0758385 0.147301 0)
(-0.0774737 0.134922 0)
(-0.0788505 0.122641 0)
(-0.0799222 0.110425 0)
(-0.0806899 0.0983567 0)
(-0.0811667 0.0865275 0)
(-0.0814047 0.0750329 0)
(-0.0814309 0.0639235 0)
(-0.081289 0.0532304 0)
(-0.0810056 0.0429571 0)
(-0.0806104 0.0330927 0)
(-0.0801281 0.023615 0)
(-0.0795848 0.01449 0)
(-0.0790096 0.00567173 0)
(-0.0784365 -0.00290486 0)
(-0.0779068 -0.0113286 0)
(-0.0774684 -0.0197156 0)
(-0.077179 -0.0282148 0)
(-0.077105 -0.0370091 0)
(-0.0773207 -0.0463124 0)
(-0.0779028 -0.0563593 0)
(-0.0789225 -0.0673837 0)
(-0.080433 -0.0795894 0)
(-0.0824543 -0.0931142 0)
(-0.0849615 -0.107999 0)
(-0.0878793 -0.124173 0)
(-0.0910884 -0.141457 0)
(-0.0944509 -0.159605 0)
(-0.0978685 -0.178386 0)
(-0.101391 -0.197793 0)
(-0.105361 -0.218444 0)
(-0.110474 -0.242079 0)
(-0.117323 -0.271393 0)
(-0.125049 -0.307362 0)
(-0.129611 -0.342562 0)
(-0.123952 -0.352433 0)
(-0.0966161 -0.289084 0)
(-0.0264232 -0.0900497 0)
(0.0339133 0.0438728 0)
(-0.00186675 0.104532 0)
(-0.0140843 0.176999 0)
(-0.0291873 0.218678 0)
(-0.0412018 0.247671 0)
(-0.0503544 0.260688 0)
(-0.0556403 0.258056 0)
(-0.0580843 0.244349 0)
(-0.0589477 0.225902 0)
(-0.0596365 0.207113 0)
(-0.0608019 0.190069 0)
(-0.0625986 0.175232 0)
(-0.0647151 0.161866 0)
(-0.0668485 0.149127 0)
(-0.0687977 0.136568 0)
(-0.0704166 0.123997 0)
(-0.0717035 0.111462 0)
(-0.0726698 0.0990865 0)
(-0.0733426 0.0869843 0)
(-0.0737712 0.0752556 0)
(-0.0739837 0.0639502 0)
(-0.0740224 0.0530959 0)
(-0.0739118 0.0426904 0)
(-0.0736805 0.0327203 0)
(-0.07335 0.0231612 0)
(-0.0729435 0.0139803 0)
(-0.0724848 0.00513458 0)
(-0.0720036 -0.00343566 0)
(-0.0715335 -0.0118132 0)
(-0.0711138 -0.0201062 0)
(-0.0707936 -0.0284546 0)
(-0.0706301 -0.0370324 0)
(-0.0706897 -0.0460466 0)
(-0.0710446 -0.0557302 0)
(-0.0717671 -0.0663253 0)
(-0.0729196 -0.0780563 0)
(-0.0745403 -0.091095 0)
(-0.0766293 -0.105525 0)
(-0.0791388 -0.121319 0)
(-0.0819748 -0.138336 0)
(-0.0850131 -0.15635 0)
(-0.088137 -0.175107 0)
(-0.0913132 -0.194445 0)
(-0.0947139 -0.214591 0)
(-0.098879 -0.236745 0)
(-0.10464 -0.263638 0)
(-0.112228 -0.298305 0)
(-0.118782 -0.338165 0)
(-0.117464 -0.364035 0)
(-0.0954576 -0.331502 0)
(-0.0501065 -0.177733 0)
(0.0407563 0.0455681 0)
(-0.000337698 0.111419 0)
(-0.00963211 0.189252 0)
(-0.0218856 0.230319 0)
(-0.0316613 0.257055 0)
(-0.0391592 0.267276 0)
(-0.0436066 0.262003 0)
(-0.0459505 0.246504 0)
(-0.0472369 0.227287 0)
(-0.048619 0.208493 0)
(-0.0505108 0.191835 0)
(-0.0529013 0.177365 0)
(-0.0554481 0.164125 0)
(-0.0578906 0.151285 0)
(-0.0600735 0.138472 0)
(-0.0619011 0.125574 0)
(-0.0633929 0.112707 0)
(-0.0645616 0.100019 0)
(-0.0654396 0.0876398 0)
(-0.0660693 0.0756722 0)
(-0.0664784 0.0641649 0)
(-0.0667068 0.0531418 0)
(-0.0667782 0.0425959 0)
(-0.0667207 0.03251 0)
(-0.0665539 0.0228569 0)
(-0.0662986 0.0136042 0)
(-0.0659741 0.00470986 0)
(-0.0656068 -0.00388249 0)
(-0.0652233 -0.0122491 0)
(-0.0648553 -0.0204914 0)
(-0.0645429 -0.0287412 0)
(-0.0643348 -0.0371631 0)
(-0.064289 -0.0459552 0)
(-0.0644707 -0.0553442 0)
(-0.06495 -0.0655727 0)
(-0.0657938 -0.0768767 0)
(-0.0670547 -0.0894542 0)
(-0.068757 -0.10343 0)
(-0.0708839 -0.118825 0)
(-0.0733711 -0.135544 0)
(-0.0761122 -0.153382 0)
(-0.0789789 -0.172062 0)
(-0.0818816 -0.191332 0)
(-0.0848752 -0.211198 0)
(-0.0883509 -0.232481 0)
(-0.093148 -0.257676 0)
(-0.100253 -0.290848 0)
(-0.108102 -0.333045 0)
(-0.11137 -0.370299 0)
(-0.0977249 -0.361955 0)
(-0.0660778 -0.239866 0)
(0.0289637 0.037687 0)
(0.00115754 0.115284 0)
(-0.00518259 0.198598 0)
(-0.0146157 0.239634 0)
(-0.0223114 0.26465 0)
(-0.0283801 0.272751 0)
(-0.0321833 0.265553 0)
(-0.0345254 0.248818 0)
(-0.0362226 0.229155 0)
(-0.0381696 0.210475 0)
(-0.0405882 0.194159 0)
(-0.0433769 0.179932 0)
(-0.0462045 0.166707 0)
(-0.0488567 0.153698 0)
(-0.0512225 0.140594 0)
(-0.0532386 0.127361 0)
(-0.0549293 0.11416 0)
(-0.0563038 0.10116 0)
(-0.0573922 0.0885023 0)
(-0.0582283 0.0762907 0)
(-0.0588385 0.064575 0)
(-0.0592599 0.0533756 0)
(-0.0595166 0.0426816 0)
(-0.0596367 0.0324717 0)
(-0.0596395 0.0227156 0)
(-0.0595444 0.0133789 0)
(-0.0593679 0.00441986 0)
(-0.0591319 -0.00421549 0)
(-0.0588567 -0.0125991 0)
(-0.0585681 -0.0208265 0)
(-0.0582982 -0.0290218 0)
(-0.0580871 -0.0373411 0)
(-0.0579847 -0.0459733 0)
(-0.0580489 -0.0551374 0)
(-0.0583449 -0.0650726 0)
(-0.0589394 -0.0760191 0)
(-0.0598923 -0.08819 0)
(-0.0612436 -0.101738 0)
(-0.0630008 -0.116725 0)
(-0.0651304 -0.133102 0)
(-0.0675589 -0.150714 0)
(-0.0701772 -0.169313 0)
(-0.0728763 -0.188594 0)
(-0.0756131 -0.208323 0)
(-0.078597 -0.228774 0)
(-0.0824647 -0.251757 0)
(-0.0886355 -0.281612 0)
(-0.0967857 -0.322921 0)
(-0.104362 -0.368602 0)
(-0.0994056 -0.382344 0)
(-0.0772272 -0.284573 0)
(0.0048962 0.0128975 0)
(0.00260004 0.11609 0)
(-0.000814045 0.204996 0)
(-0.00748674 0.2467 0)
(-0.0132426 0.270597 0)
(-0.0180232 0.277246 0)
(-0.0213014 0.268769 0)
(-0.0236914 0.251278 0)
(-0.0257302 0.23141 0)
(-0.0280888 0.212892 0)
(-0.0308574 0.196847 0)
(-0.0338892 0.182764 0)
(-0.0368791 0.169488 0)
(-0.0396675 0.156278 0)
(-0.0421797 0.142885 0)
(-0.0443675 0.129332 0)
(-0.0462489 0.115813 0)