/*--------------------------------*- C++ -*----------------------------------*\
| =========                 |                                                 |
| \\      /  F ield         | OpenFOAM: The Open Source CFD Toolbox           |
|  \\    /   O peration     | Version:  2312                                  |
|   \\  /    A nd           | Website:  www.openfoam.com                      |
|    \\/     M anipulation  |                                                 |
\*---------------------------------------------------------------------------*/
FoamFile
{
    version     2.0;
    format      ascii;
    arch        "LSB;label=32;scalar=64";
    class       volVectorField;
    location    "50";
    object      U;
}
// * * * * * * * * * * * * * * * * * * * * * * * * * * * * * * * * * * * * * //

dimensions      [0 1 -1 0 0 0 0];

internalField   nonuniform List<vector> 
2500
(
(-9.10822e-05 -1.72744e-05 0)
(0.000872532 -0.000535323 0)
(0.00310505 -0.00076221 0)
(0.00529518 -0.000658611 0)
(0.00694617 -0.00038249 0)
(0.00784927 -0.00012095 0)
(0.00816618 1.77727e-05 0)
(0.00821075 1.39106e-05 0)
(0.00826534 -9.0933e-05 0)
(0.00847269 -0.000229397 0)
(0.0088041 -0.000348274 0)
(0.00909787 -0.000407047 0)
(0.00919529 -0.000344822 0)
(0.00901338 -0.000165875 0)
(0.00842376 -0.000426591 0)
(0.00709324 -0.00167317 0)
(0.00447173 -0.00306205 0)
(-0.000632527 -0.00321479 0)
(-0.00914919 -0.00099913 0)
(-0.0215958 0.00300256 0)
(-0.0378864 0.00704412 0)
(-0.0565785 0.00973187 0)
(-0.0754689 0.010814 0)
(-0.0929068 0.0106286 0)
(-0.10776 0.00956119 0)
(-0.119259 0.00789365 0)
(-0.126881 0.00583941 0)
(-0.130272 0.00358529 0)
(-0.129125 0.00121916 0)
(-0.122953 -0.00131241 0)
(-0.11164 -0.00395571 0)
(-0.0951452 -0.00661465 0)
(-0.0737357 -0.00910242 0)
(-0.0480743 -0.0111457 0)
(-0.0194788 -0.0124554 0)
(0.010359 -0.0127841 0)
(0.0391717 -0.0118167 0)
(0.0642447 -0.00863385 0)
(0.0825666 -0.00375273 0)
(0.0918448 0.00191384 0)
(0.0911702 0.00703372 0)
(0.0805044 0.010905 0)
(0.0619171 0.0124332 0)
(0.0405909 0.0106985 0)
(0.0222131 0.0063336 0)
(0.00982849 0.00218845 0)
(0.00300559 -5.34044e-05 0)
(4.68002e-05 -0.000780432 0)
(-0.000869434 -0.000916395 0)
(-0.000519844 -0.000882937 0)
(0.000186449 -0.000738656 0)
(0.0024448 -0.00291049 0)
(0.00669345 -0.00379759 0)
(0.0106935 -0.00337143 0)
(0.0137284 -0.00223798 0)
(0.015519 -0.00108569 0)
(0.0162569 -0.000331352 0)
(0.0163339 -7.68147e-05 0)
(0.0160851 -0.000170346 0)
(0.0155924 -0.00032892 0)
(0.0146361 -0.000282554 0)
(0.0127812 7.92778e-05 0)
(0.0093997 0.000509985 0)
(0.00320246 0.000853294 0)
(-0.00763459 0.00218205 0)
(-0.0245862 0.00582962 0)
(-0.0483337 0.0117156 0)
(-0.0769863 0.0183391 0)
(-0.106137 0.0242338 0)
(-0.133313 0.0282446 0)
(-0.157534 0.0299274 0)
(-0.178398 0.0293479 0)
(-0.195602 0.0269082 0)
(-0.209045 0.0230485 0)
(-0.218586 0.0181654 0)
(-0.224119 0.0125271 0)
(-0.225484 0.00634275 0)
(-0.222616 -0.00026701 0)
(-0.215489 -0.00728051 0)
(-0.203802 -0.0146496 0)
(-0.187398 -0.0222566 0)
(-0.166169 -0.0298284 0)
(-0.140227 -0.036893 0)
(-0.110018 -0.0427466 0)
(-0.0764676 -0.0465423 0)
(-0.0405191 -0.0473863 0)
(-0.0037833 -0.0446085 0)
(0.0305022 -0.0372422 0)
(0.059471 -0.0249525 0)
(0.0807282 -0.00972897 0)
(0.0929171 0.00535482 0)
(0.096081 0.0176435 0)
(0.0902944 0.0259003 0)
(0.0774163 0.0288794 0)
(0.0595303 0.0257345 0)
(0.0401625 0.0182858 0)
(0.0232838 0.0104239 0)
(0.0113822 0.00487329 0)
(0.00401252 0.00167702 0)
(0.000607839 -0.000418037 0)
(0.000414268 -0.00240504 0)
(0.00372263 -0.00707714 0)
(0.00926039 -0.00866724 0)
(0.0139183 -0.00750288 0)
(0.0170738 -0.00499262 0)
(0.0186119 -0.00246934 0)
(0.0188216 -0.000678118 0)
(0.0180516 0.000245751 0)
(0.0164123 0.000693113 0)
(0.0135704 0.00129209 0)
(0.00864245 0.00250997 0)
(-4.94998e-05 0.00469435 0)
(-0.0148614 0.00926682 0)
(-0.0379364 0.0180606 0)
(-0.0687702 0.0296436 0)
(-0.102842 0.0400505 0)
(-0.135868 0.0472235 0)
(-0.166146 0.0513084 0)
(-0.192596 0.0527853 0)
(-0.214981 0.0520286 0)
(-0.233263 0.0491762 0)
(-0.247801 0.0444989 0)
(-0.258868 0.0382906 0)
(-0.266805 0.0308943 0)
(-0.271744 0.0225728 0)
(-0.273782 0.0135058 0)
(-0.272884 0.00376034 0)
(-0.269063 -0.00668337 0)
(-0.262213 -0.0178784 0)
(-0.252089 -0.0297002 0)
(-0.238381 -0.0419911 0)
(-0.220782 -0.054344 0)
(-0.199064 -0.0660846 0)
(-0.173223 -0.0761453 0)
(-0.143523 -0.083113 0)
(-0.110444 -0.0854211 0)
(-0.0747833 -0.0819282 0)
(-0.0383229 -0.0714803 0)
(-0.0037601 -0.0532482 0)
(0.0252077 -0.0300104 0)
(0.0461382 -0.00620698 0)
(0.059122 0.013713 0)
(0.0651641 0.0286635 0)
(0.0650886 0.037746 0)
(0.0586745 0.0399564 0)
(0.046817 0.0355094 0)
(0.0323401 0.0270236 0)
(0.0188549 0.0178486 0)
(0.00802195 0.0102509 0)
(0.00161429 0.00360248 0)
(0.000747094 -0.00475152 0)
(0.00523314 -0.0123189 0)
(0.0116545 -0.0140733 0)
(0.01611 -0.0114172 0)
(0.0183469 -0.00701288 0)
(0.0185727 -0.00282809 0)
(0.0171734 0.000246991 0)
(0.0142709 0.00233988 0)
(0.00929662 0.00430957 0)
(0.000659108 0.00741513 0)
(-0.0142242 0.0135288 0)
(-0.0382332 0.0248367 0)
(-0.0709354 0.0401473 0)
(-0.107226 0.0547037 0)
(-0.142853 0.0656693 0)
(-0.175509 0.072645 0)
(-0.203891 0.075857 0)
(-0.22769 0.0758743 0)
(-0.247008 0.0732572 0)
(-0.262335 0.068525 0)
(-0.274107 0.0620339 0)
(-0.282923 0.0541712 0)
(-0.289182 0.0452085 0)
(-0.2933 0.0354058 0)
(-0.295466 0.0248819 0)
(-0.295858 0.0136743 0)
(-0.294503 0.0016748 0)
(-0.291457 -0.0112456 0)
(-0.286552 -0.0251246 0)
(-0.27956 -0.0399852 0)
(-0.270137 -0.0556894 0)
(-0.257897 -0.0718934 0)
(-0.242346 -0.087869 0)
(-0.223081 -0.102402 0)
(-0.199729 -0.113686 0)
(-0.172089 -0.119499 0)
(-0.140058 -0.117685 0)
(-0.104449 -0.106573 0)
(-0.0673303 -0.0855105 0)
(-0.0323488 -0.0566292 0)
(-0.00391602 -0.0258492 0)
(0.0154797 0.000765066 0)
(0.0281359 0.0213034 0)
(0.0364614 0.0358306 0)
(0.0395527 0.0438612 0)
(0.0364796 0.0442307 0)
(0.0285389 0.0383274 0)
(0.0185971 0.0291782 0)
(0.00862436 0.0196085 0)
(0.00181083 0.00891094 0)
(0.00133371 -0.00813208 0)
(0.00709293 -0.0186624 0)
(0.0136999 -0.0195045 0)
(0.0170176 -0.0143178 0)
(0.0173661 -0.00738709 0)
(0.0152532 -0.00116206 0)
(0.0109368 0.00367172 0)
(0.00370998 0.00813868 0)
(-0.00858256 0.014419 0)
(-0.0292132 0.0255416 0)
(-0.0598328 0.0425917 0)
(-0.0969676 0.0617145 0)
(-0.134895 0.0780187 0)
(-0.169875 0.0896019 0)
(-0.20023 0.0962489 0)
(-0.225451 0.0985024 0)
(-0.245712 0.0971328 0)
(-0.261408 0.0929191 0)
(-0.273112 0.0865107 0)
(-0.281478 0.0784425 0)
(-0.287123 0.0691495 0)
(-0.290664 0.0589813 0)
(-0.29256 0.0481698 0)
(-0.293243 0.0368631 0)
(-0.292974 0.0250692 0)
(-0.292012 0.0126946 0)
(-0.290471 -0.00046669 0)
(-0.288389 -0.0145859 0)
(-0.285584 -0.0297722 0)
(-0.282069 -0.0462182 0)
(-0.277479 -0.0639339 0)
(-0.271523 -0.0827647 0)
(-0.263555 -0.102129 0)
(-0.252904 -0.120922 0)
(-0.238624 -0.137271 0)
(-0.219695 -0.148543 0)
(-0.194927 -0.151658 0)
(-0.163639 -0.143759 0)
(-0.12637 -0.122953 0)
(-0.0859593 -0.0903472 0)
(-0.0482537 -0.0518508 0)
(-0.0204676 -0.0171392 0)
(-0.0038155 0.0084309 0)
(0.00815441 0.0274194 0)
(0.0170044 0.0405326 0)
(0.0204301 0.0460651 0)
(0.0185911 0.0441535 0)
(0.0133085 0.03709 0)
(0.00632044 0.0273398 0)
(0.00118089 0.013524 0)
(0.00221478 -0.0128432 0)
(0.00888713 -0.0256363 0)
(0.0145001 -0.0239719 0)
(0.0156145 -0.0151648 0)
(0.0131109 -0.0050883 0)
(0.00743637 0.00369589 0)
(-0.00193173 0.0118232 0)
(-0.0172898 0.0221283 0)
(-0.0418938 0.0379755 0)
(-0.0759324 0.0593094 0)
(-0.114741 0.0813244 0)
(-0.152439 0.099229 0)
(-0.185587 0.111324 0)
(-0.21307 0.117762 0)
(-0.234722 0.119148 0)
(-0.250976 0.116443 0)
(-0.262519 0.110605 0)
(-0.270107 0.102543 0)
(-0.274541 0.0929585 0)
(-0.276545 0.0823924 0)
(-0.276794 0.0712288 0)
(-0.275851 0.0597224 0)
(-0.274177 0.0480084 0)
(-0.27215 0.036123 0)
(-0.270062 0.0239944 0)
(-0.268149 0.0114677 0)
(-0.266509 -0.00166965 0)
(-0.265142 -0.0156189 0)
(-0.264002 -0.0306895 0)
(-0.263204 -0.0471498 0)
(-0.26259 -0.0652187 0)
(-0.262009 -0.0849551 0)
(-0.261017 -0.106119 0)
(-0.258956 -0.127953 0)
(-0.254737 -0.148952 0)
(-0.246786 -0.166595 0)
(-0.233013 -0.177396 0)
(-0.211134 -0.177344 0)
(-0.179552 -0.162726 0)
(-0.138604 -0.131985 0)
(-0.0927845 -0.0885649 0)
(-0.0519836 -0.0429276 0)
(-0.0259776 -0.00774525 0)
(-0.0119546 0.0157109 0)
(-0.00136921 0.0327653 0)
(0.00559588 0.0430589 0)
(0.00802903 0.045383 0)
(0.00670829 0.0412091 0)
(0.00302469 0.0322157 0)
(0.000291075 0.0162611 0)
(0.00318884 -0.0188528 0)
(0.00969763 -0.0321459 0)
(0.0128587 -0.0262009 0)
(0.0106783 -0.0128913 0)
(0.00412632 0.000954968 0)
(-0.00689153 0.013917 0)
(-0.0242979 0.0287469 0)
(-0.0507957 0.0487078 0)
(-0.0859133 0.0734697 0)
(-0.124741 0.0981096 0)
(-0.161322 0.1177 0)
(-0.192251 0.130471 0)
(-0.216743 0.136747 0)
(-0.234859 0.137318 0)
(-0.247228 0.133328 0)
(-0.254785 0.126001 0)
(-0.258475 0.116387 0)
(-0.259269 0.105397 0)
(-0.258014 0.0936565 0)
(-0.255441 0.0816201 0)
(-0.252138 0.0695428 0)
(-0.248552 0.0575586 0)
(-0.245016 0.045689 0)
(-0.241772 0.0338786 0)
(-0.239007 0.0220056 0)
(-0.236851 0.00991702 0)
(-0.235339 -0.0025677 0)
(-0.234466 -0.0157025 0)
(-0.234311 -0.0298737 0)
(-0.23494 -0.0453746 0)
(-0.23644 -0.0625448 0)
(-0.238823 -0.0815938 0)
(-0.24202 -0.102615 0)
(-0.245727 -0.125322 0)
(-0.249235 -0.148849 0)
(-0.251129 -0.171385 0)
(-0.249082 -0.189915 0)
(-0.239884 -0.200164 0)
(-0.220057 -0.197096 0)
(-0.187025 -0.17617 0)
(-0.141265 -0.136193 0)
(-0.0894627 -0.0828695 0)
(-0.0460163 -0.0313287 0)
(-0.0233851 0.00243574 0)
(-0.0126333 0.0232627 0)
(-0.00446537 0.0372923 0)
(5.35618e-05 0.0434715 0)
(0.00129322 0.0422113 0)
(0.000301665 0.0342245 0)
(-0.000338606 0.0169952 0)
(0.0037484 -0.0254146 0)
(0.00845454 -0.0365211 0)
(0.00774182 -0.0247778 0)
(0.00110713 -0.00619853 0)
(-0.0107554 0.0126441 0)
(-0.029082 0.0325095 0)
(-0.0557214 0.0563058 0)
(-0.0902235 0.0840779 0)
(-0.128025 0.111366 0)
(-0.16318 0.133007 0)
(-0.192026 0.146839 0)
(-0.21382 0.1532 0)
(-0.22889 0.153166 0)
(-0.237959 0.148071 0)
(-0.24222 0.139413 0)
(-0.24281 0.128454 0)
(-0.240849 0.116218 0)
(-0.237307 0.103455 0)
(-0.23293 0.0906317 0)
(-0.228299 0.0780522 0)
(-0.223775 0.0658255 0)
(-0.219606 0.0539774 0)
(-0.215913 0.0424299 0)
(-0.212794 0.0310664 0)
(-0.210292 0.0197286 0)
(-0.20844 0.00825924 0)
(-0.207239 -0.00352859 0)
(-0.206744 -0.0158862 0)
(-0.207061 -0.0291271 0)
(-0.208251 -0.043536 0)
(-0.210455 -0.0594185 0)
(-0.213798 -0.0770351 0)
(-0.218395 -0.0965966 0)
(-0.224281 -0.118162 0)
(-0.231258 -0.141469 0)
(-0.238647 -0.16566 0)
(-0.244827 -0.188873 0)
(-0.246887 -0.20782 0)
(-0.240736 -0.217627 0)
(-0.22186 -0.21222 0)
(-0.186849 -0.186022 0)
(-0.136166 -0.137403 0)
(-0.0784214 -0.0738934 0)
(-0.033549 -0.0172986 0)
(-0.0163544 0.0134201 0)
(-0.00910678 0.030561 0)
(-0.00403003 0.0398561 0)
(-0.00166445 0.0411344 0)
(-0.00110501 0.0341562 0)
(-0.000541009 0.0164282 0)
(0.00337272 -0.0308629 0)
(0.00456732 -0.0368493 0)
(-0.00114902 -0.0184187 0)
(-0.0131916 0.00623135 0)
(-0.0313777 0.0317449 0)
(-0.0569664 0.0595892 0)
(-0.0896499 0.0903276 0)
(-0.125725 0.120468 0)
(-0.159466 0.144753 0)
(-0.186699 0.160315 0)
(-0.206419 0.16729 0)
(-0.219184 0.167052 0)
(-0.22583 0.161184 0)
(-0.227685 0.15143 0)
(-0.226157 0.139335 0)
(-0.22244 0.126032 0)
(-0.21762 0.112383 0)
(-0.21241 0.0988986 0)
(-0.207312 0.0858738 0)
(-0.202598 0.0734329 0)
(-0.198393 0.0615625 0)
(-0.194749 0.0501968 0)
(-0.191652 0.0391956 0)
(-0.189102 0.0284166 0)
(-0.187078 0.0176886 0)
(-0.185588 0.0068462 0)
(-0.18465 -0.00431363 0)
(-0.18435 -0.0160182 0)
(-0.184787 -0.0285108 0)
(-0.186078 -0.0420445 0)
(-0.188362 -0.0568719 0)
(-0.191802 -0.0732234 0)
(-0.196555 -0.0912881 0)
(-0.202766 -0.111188 0)
(-0.210467 -0.132916 0)
(-0.219434 -0.156201 0)
(-0.228915 -0.180248 0)
(-0.237207 -0.20333 0)
(-0.24121 -0.222183 0)
(-0.236393 -0.231529 0)
(-0.21746 -0.224196 0)
(-0.180098 -0.192904 0)
(-0.12438 -0.1347 0)
(-0.0608038 -0.0595544 0)
(-0.0179326 -0.000514736 0)
(-0.00851739 0.0248876 0)
(-0.00416991 0.0362307 0)
(-0.00190508 0.0393622 0)
(-0.00101505 0.0332498 0)
(-0.000329983 0.015538 0)
(0.0019603 -0.0330898 0)
(-0.00177551 -0.0319284 0)
(-0.0132356 -0.00632608 0)
(-0.0307589 0.0249718 0)
(-0.0547022 0.0574411 0)
(-0.0849208 0.0914711 0)
(-0.118771 0.124786 0)
(-0.151193 0.152434 0)
(-0.17748 0.170714 0)
(-0.195953 0.179155 0)
(-0.20726 0.179329 0)
(-0.212417 0.17318 0)
(-0.212778 0.162677 0)
(-0.209991 0.149684 0)
(-0.205381 0.135532 0)
(-0.200022 0.121157 0)
(-0.194656 0.10716 0)
(-0.189641 0.0938035 0)
(-0.185194 0.0811955 0)
(-0.181317 0.0692844 0)
(-0.177987 0.0579748 0)
(-0.17513 0.0471394 0)
(-0.17269 0.0366395 0)
(-0.170635 0.0263439 0)
(-0.168943 0.01611 0)
(-0.167637 0.00579065 0)
(-0.166762 -0.00479082 0)
(-0.166424 -0.0158307 0)
(-0.166726 -0.027558 0)
(-0.167806 -0.0402038 0)
(-0.169811 -0.0540086 0)
(-0.172915 -0.0692035 0)
(-0.177298 -0.0859841 0)
(-0.183139 -0.104487 0)
(-0.190555 -0.124755 0)
(-0.199509 -0.146692 0)
(-0.209632 -0.169979 0)
(-0.220009 -0.193854 0)
(-0.228849 -0.216664 0)
(-0.233068 -0.235155 0)
(-0.228007 -0.243622 0)
(-0.207838 -0.233662 0)
(-0.167459 -0.195777 0)
(-0.106297 -0.125301 0)
(-0.0371497 -0.0372193 0)
(-0.00454474 0.0157241 0)
(-0.0020836 0.0333124 0)
(-0.000229949 0.0377992 0)
(7.78201e-05 0.032539 0)
(8.00787e-05 0.0151013 0)
(-0.000415953 -0.0306929 0)
(-0.0095889 -0.0212636 0)
(-0.0265099 0.0115448 0)
(-0.0486508 0.0489521 0)
(-0.0763771 0.086822 0)
(-0.107775 0.123704 0)
(-0.138911 0.155431 0)
(-0.164924 0.177616 0)
(-0.183135 0.188755 0)
(-0.193868 0.190223 0)
(-0.198424 0.184436 0)
(-0.198146 0.173652 0)
(-0.194792 0.160035 0)
(-0.189917 0.145243 0)
(-0.184548 0.130305 0)
(-0.179428 0.115897 0)
(-0.174861 0.10228 0)
(-0.170932 0.0894921 0)
(-0.167615 0.0774723 0)
(-0.164775 0.0660822 0)
(-0.162326 0.0552092 0)
(-0.160162 0.0447274 0)
(-0.158241 0.034535 0)
(-0.156533 0.0245285 0)
(-0.155049 0.0146024 0)
(-0.153822 0.00463077 0)
(-0.15292 -0.00553671 0)
(-0.152461 -0.0160662 0)
(-0.152546 -0.0271494 0)
(-0.153297 -0.0389965 0)
(-0.154849 -0.051823 0)
(-0.157357 -0.0658448 0)
(-0.160987 -0.0812604 0)
(-0.165923 -0.0982381 0)
(-0.172344 -0.116906 0)
(-0.18038 -0.137329 0)
(-0.189974 -0.159463 0)
(-0.200668 -0.183031 0)
(-0.21135 -0.20723 0)
(-0.219996 -0.230206 0)
(-0.223374 -0.248265 0)
(-0.216684 -0.254906 0)
(-0.193846 -0.240201 0)
(-0.149299 -0.19215 0)
(-0.0817691 -0.105046 0)
(-0.00996968 -0.00648003 0)
(0.00231455 0.0315338 0)
(0.00267293 0.0375894 0)
(0.00197239 0.0330637 0)
(0.000626923 0.0157554 0)
(-0.00306977 -0.0232782 0)
(-0.0171526 -0.00519625 0)
(-0.0386518 0.0339502 0)
(-0.0639438 0.075997 0)
(-0.0930528 0.116764 0)
(-0.12285 0.153081 0)
(-0.149063 0.180347 0)
(-0.168042 0.195726 0)
(-0.179197 0.199753 0)
(-0.183953 0.195133 0)
(-0.183833 0.184663 0)
(-0.180504 0.170759 0)
(-0.175774 0.155495 0)
(-0.17076 0.140133 0)
(-0.166116 0.125369 0)
(-0.16218 0.111518 0)
(-0.158913 0.0985431 0)
(-0.156232 0.0863474 0)
(-0.153967 0.0747854 0)
(-0.151971 0.0637313 0)
(-0.150152 0.0530965 0)
(-0.148437 0.0427955 0)
(-0.146816 0.032766 0)
(-0.145284 0.0229318 0)
(-0.143884 0.0132125 0)
(-0.142667 0.00349888 0)
(-0.141719 -0.00634015 0)
(-0.141139 -0.0164571 0)
(-0.141038 -0.0270209 0)
(-0.141532 -0.0382321 0)
(-0.142739 -0.0503002 0)
(-0.144777 -0.0634234 0)
(-0.147759 -0.0777738 0)
(-0.1518 -0.0934794 0)
(-0.157023 -0.110636 0)
(-0.163577 -0.129343 0)
(-0.171617 -0.149739 0)
(-0.181182 -0.171971 0)
(-0.191885 -0.195976 0)
(-0.202504 -0.220966 0)
(-0.210648 -0.244606 0)
(-0.21257 -0.262085 0)
(-0.203031 -0.265257 0)
(-0.175779 -0.241899 0)
(-0.124774 -0.177182 0)
(-0.0472063 -0.0672277 0)
(0.00653682 0.0191057 0)
(0.0031184 0.0380131 0)
(0.00331773 0.0345067 0)
(0.00111766 0.0174731 0)
(-0.00538573 -0.0112421 0)
(-0.0233006 0.015424 0)
(-0.0478048 0.0590616 0)
(-0.0746795 0.103871 0)
(-0.103236 0.144913 0)
(-0.129712 0.178066 0)
(-0.150283 0.199305 0)
(-0.162985 0.207606 0)
(-0.168772 0.205286 0)
(-0.169493 0.195824 0)
(-0.16679 0.182104 0)
(-0.162492 0.166526 0)
(-0.158039 0.150811 0)
(-0.154019 0.135739 0)
(-0.150749 0.121635 0)
(-0.1482 0.108471 0)
(-0.146157 0.0960559 0)
(-0.144462 0.0842563 0)
(-0.14292 0.0729299 0)
(-0.141438 0.0620087 0)
(-0.139954 0.0514407 0)
(-0.138452 0.0411882 0)
(-0.136949 0.031217 0)
(-0.135472 0.0214756 0)
(-0.134075 0.0118987 0)
(-0.132823 0.00239592 0)
(-0.131795 -0.00714 0)
(-0.131089 -0.016855 0)
(-0.13081 -0.0269128 0)
(-0.131069 -0.0375095 0)
(-0.131983 -0.0488619 0)
(-0.133661 -0.0611881 0)
(-0.136194 -0.0746807 0)
(-0.139652 -0.0894767 0)
(-0.14408 -0.105641 0)
(-0.149521 -0.123186 0)
(-0.156058 -0.142152 0)
(-0.163841 -0.162704 0)
(-0.173005 -0.185169 0)
(-0.18331 -0.20976 0)
(-0.193514 -0.235765 0)
(-0.200825 -0.260166 0)
(-0.200706 -0.276323 0)
(-0.187183 -0.273231 0)
(-0.153986 -0.235308 0)
(-0.094579 -0.145796 0)
(-0.00362966 -0.011694 0)
(0.00710281 0.0380618 0)
(0.00357542 0.0362945 0)
(0.00179488 0.0201025 0)
(-0.00665201 0.00436074 0)
(-0.0271611 0.0389654 0)
(-0.0534559 0.0853107 0)
(-0.0803581 0.1309 0)
(-0.106988 0.170032 0)
(-0.129338 0.198381 0)
(-0.144619 0.212975 0)
(-0.152439 0.214654 0)
(-0.154632 0.207126 0)
(-0.15312 0.194158 0)
(-0.149609 0.178543 0)
(-0.14578 0.162461 0)
(-0.14248 0.147081 0)
(-0.139879 0.132691 0)
(-0.138019 0.119293 0)
(-0.13663 0.106646 0)
(-0.13548 0.0945475 0)
(-0.13441 0.0828877 0)
(-0.133279 0.0715831 0)
(-0.132065 0.0606265 0)
(-0.130743 0.0500014 0)
(-0.129345 0.0397064 0)
(-0.127901 0.0297222 0)
(-0.126461 0.0200154 0)
(-0.125079 0.0105316 0)
(-0.123815 0.00119393 0)
(-0.122746 -0.00809748 0)
(-0.12196 -0.0174708 0)
(-0.121545 -0.0270817 0)
(-0.121606 -0.0371196 0)
(-0.122247 -0.0477984 0)
(-0.12357 -0.0593459 0)
(-0.12566 -0.0719789 0)
(-0.128575 -0.0858725 0)
(-0.132345 -0.101133 0)
(-0.136975 -0.11779 0)
(-0.142479 -0.135834 0)
(-0.148922 -0.155303 0)
(-0.156461 -0.176405 0)
(-0.165259 -0.199569 0)
(-0.175082 -0.225136 0)
(-0.184529 -0.252254 0)
(-0.190291 -0.276805 0)
(-0.186879 -0.289403 0)
(-0.167469 -0.27455 0)
(-0.125231 -0.211263 0)
(-0.0496506 -0.0833263 0)
(0.0127228 0.0302019 0)
(0.000739973 0.039483 0)
(0.00241567 0.0224426 0)
(-0.00728485 0.0220202 0)
(-0.028977 0.0636314 0)
(-0.0556311 0.111247 0)
(-0.0813596 0.155974 0)
(-0.105204 0.191724 0)
(-0.123377 0.214432 0)
(-0.134318 0.222439 0)
(-0.138761 0.218392 0)
(-0.13892 0.206896 0)
(-0.13664 0.191664 0)
(-0.133558 0.175262 0)
(-0.13094 0.159439 0)
(-0.129057 0.144726 0)
(-0.127827 0.131019 0)
(-0.127096 0.118113 0)
(-0.126514 0.105702 0)
(-0.125924 0.0936593 0)
(-0.125202 0.0819272 0)
(-0.124293 0.0704978 0)
(-0.123219 0.059408 0)
(-0.121989 0.0486697 0)
(-0.120662 0.0383007 0)
(-0.119272 0.0282865 0)
(-0.117877 0.018602 0)
(-0.116527 0.00919777 0)
(-0.115285 5.76483e-06 0)
(-0.114212 -0.00907182 0)
(-0.113387 -0.0181482 0)
(-0.112891 -0.0273755 0)
(-0.11282 -0.0369367 0)
(-0.113266 -0.0470471 0)
(-0.114326 -0.057942 0)
(-0.116073 -0.069855 0)
(-0.118555 -0.0829825 0)
(-0.121774 -0.0974481 0)
(-0.125704 -0.113287 0)
(-0.130316 -0.130476 0)
(-0.135641 -0.149013 0)
(-0.141829 -0.169046 0)
(-0.149149 -0.190976 0)
(-0.157799 -0.215407 0)
(-0.167357 -0.242621 0)
(-0.175916 -0.271043 0)
(-0.179343 -0.294487 0)
(-0.171117 -0.299586 0)
(-0.144003 -0.265197 0)
(-0.0907929 -0.166894 0)
(0.00964577 -0.00184165 0)
(0.0046364 0.0441844 0)
(0.000898175 0.0247791 0)
(-0.0072205 0.040148 0)
(-0.0288845 0.0881493 0)
(-0.0547469 0.135871 0)
(-0.0784473 0.178598 0)
(-0.0991692 0.210124 0)
(-0.113632 0.226928 0)
(-0.121351 0.228883 0)
(-0.123735 0.220188 0)
(-0.123079 0.205884 0)
(-0.121054 0.189412 0)
(-0.119068 0.172983 0)
(-0.117857 0.157764 0)
(-0.117285 0.143701 0)
(-0.117151 0.130463 0)
(-0.117196 0.117756 0)
(-0.117121 0.105326 0)
(-0.116857 0.0931398 0)
(-0.116329 0.0812028 0)
(-0.115555 0.0695713 0)
(-0.114574 0.0583052 0)
(-0.113425 0.0474345 0)
(-0.112171 0.0369815 0)
(-0.11085 0.0269334 0)
(-0.109522 0.017267 0)
(-0.108228 0.00793314 0)
(-0.107027 -0.00113 0)
(-0.105974 -0.01001 0)
(-0.105135 -0.0188174 0)
(-0.104581 -0.0276933 0)
(-0.104396 -0.0368132 0)
(-0.104668 -0.0463913 0)
(-0.10549 -0.0566734 0)
(-0.106941 -0.0679207 0)
(-0.109077 -0.0803736 0)
(-0.111904 -0.094204 0)
(-0.115373 -0.109471 0)
(-0.119397 -0.126114 0)
(-0.123904 -0.144014 0)
(-0.128939 -0.163149 0)
(-0.134757 -0.183808 0)
(-0.141797 -0.206725 0)
(-0.150307 -0.232825 0)
(-0.159486 -0.262122 0)
(-0.166524 -0.291235 0)
(-0.166142 -0.309848 0)
(-0.151143 -0.298061 0)
(-0.112512 -0.225663 0)
(-0.0265355 -0.0635298 0)
(0.01297 0.0451395 0)
(-0.00761022 0.0273481 0)
(-0.00657176 0.0577647 0)
(-0.0271641 0.111571 0)
(-0.0513795 0.158609 0)
(-0.0725977 0.198628 0)
(-0.0902595 0.225554 0)
(-0.10169 0.236654 0)
(-0.10721 0.233372 0)
(-0.108558 0.221104 0)
(-0.107927 0.204967 0)
(-0.106735 0.187997 0)
(-0.106049 0.171952 0)
(-0.106117 0.157362 0)
(-0.106587 0.143749 0)
(-0.107231 0.130705 0)
(-0.107769 0.117938 0)
(-0.10801 0.105297 0)
(-0.10795 0.0928393 0)
(-0.107559 0.0806238 0)
(-0.106901 0.0687511 0)
(-0.106021 0.0572892 0)
(-0.104975 0.0462775 0)
(-0.103821 0.0357334 0)
(-0.102602 0.0256437 0)
(-0.10137 0.0159836 0)
(-0.100165 0.00670521 0)
(-0.0990382 -0.00225228 0)
(-0.0980362 -0.010971 0)
(-0.0972175 -0.0195543 0)
(-0.0966419 -0.0281359 0)
(-0.0963811 -0.0368814 0)
(-0.0965116 -0.0459966 0)
(-0.0971176 -0.0557252 0)
(-0.098279 -0.0663391 0)
(-0.10006 -0.0781107 0)
(-0.102487 -0.0912672 0)
(-0.105536 -0.105938 0)
(-0.109124 -0.122116 0)
(-0.113143 -0.139669 0)
(-0.117524 -0.158428 0)
(-0.122356 -0.178394 0)
(-0.127997 -0.200045 0)
(-0.135007 -0.224524 0)
(-0.143544 -0.253124 0)
(-0.152141 -0.285191 0)
(-0.15673 -0.313987 0)
(-0.150455 -0.322093 0)
(-0.124737 -0.278909 0)
(-0.0688274 -0.149695 0)
(0.0181341 0.0316592 0)
(-0.0105038 0.0290989 0)
(-0.005515 0.0739819 0)
(-0.0242489 0.133215 0)
(-0.0462191 0.179078 0)
(-0.0647895 0.216063 0)
(-0.0796612 0.238419 0)
(-0.0887465 0.244346 0)
(-0.0928906 0.236752 0)
(-0.0939147 0.22187 0)
(-0.0937972 0.204648 0)
(-0.0936534 0.187645 0)
(-0.0941772 0.172114 0)
(-0.0952606 0.157996 0)
(-0.0964855 0.144584 0)
(-0.097646 0.131485 0)
(-0.0984987 0.118467 0)
(-0.0989577 0.105496 0)
(-0.0990575 0.092698 0)
(-0.0988005 0.0801729 0)
(-0.0982727 0.0680467 0)
(-0.0975186 0.0563874 0)
(-0.0966049 0.0452372 0)
(-0.0955808 0.0346047 0)
(-0.0944908 0.0244738 0)
(-0.0933789 0.0148158 0)
(-0.0922836 0.00558365 0)
(-0.0912488 -0.0032817 0)
(-0.0903172 -0.0118599 0)
(-0.0895396 -0.0202497 0)
(-0.0889675 -0.028579 0)
(-0.0886628 -0.0370071 0)
(-0.088692 -0.0457325 0)
(-0.0891309 -0.0549957 0)
(-0.0900557 -0.0650739 0)
(-0.0915337 -0.076258 0)
(-0.0936026 -0.0888099 0)
(-0.0962509 -0.102904 0)
(-0.0994076 -0.118577 0)
(-0.102957 -0.135717 0)
(-0.106788 -0.15412 0)
(-0.110889 -0.173638 0)
(-0.115472 -0.194449 0)
(-0.121043 -0.217391 0)
(-0.128187 -0.24405 0)
(-0.136616 -0.275607 0)
(-0.143694 -0.309144 0)
(-0.143551 -0.331579 0)
(-0.128498 -0.315142 0)
(-0.0894004 -0.218656 0)
(0.0115713 -0.000613964 0)
(0.00361798 0.0348567 0)
(-0.00419356 0.0880271 0)
(-0.0205463 0.152522 0)
(-0.0399041 0.197079 0)
(-0.0558377 0.231015 0)
(-0.0682684 0.249133 0)
(-0.0756055 0.250609 0)
(-0.0789716 0.239612 0)
(-0.0801063 0.222903 0)
(-0.0807125 0.205115 0)
(-0.0815849 0.188322 0)
(-0.0830886 0.173253 0)
(-0.0849082 0.159395 0)
(-0.0866486 0.14596 0)
(-0.0881484 0.132625 0)
(-0.0892216 0.11924 0)
(-0.0898626 0.105878 0)
(-0.0901182 0.0927094 0)
(-0.0900154 0.079866 0)
(-0.0896442 0.0674841 0)
(-0.0890483 0.0556289 0)
(-0.088297 0.0443396 0)
(-0.0874324 0.0336155 0)
(-0.0864984 0.0234363 0)
(-0.0855318 0.0137686 0)
(-0.0845684 0.00456629 0)
(-0.0836467 -0.00422849 0)
(-0.0828049 -0.0126925 0)
(-0.0820872 -0.0209209 0)
(-0.0815381 -0.029036 0)
(-0.0812103 -0.0371906 0)
(-0.081161 -0.0455751 0)
(-0.0814568 -0.0544234 0)
(-0.0821699 -0.0640133 0)
(-0.0833721 -0.0746521 0)
(-0.0851183 -0.08664 0)
(-0.0874237 -0.100211 0)
(-0.0902439 -0.115463 0)
(-0.0934703 -0.13232 0)
(-0.0969592 -0.150544 0)
(-0.100612 -0.169863 0)
(-0.104505 -0.19023 0)
(-0.109031 -0.212236 0)
(-0.114873 -0.237486 0)
(-0.122423 -0.268163 0)
(-0.130379 -0.304191 0)
(-0.134311 -0.33682 0)
(-0.127197 -0.340925 0)
(-0.0980875 -0.270081 0)
(-0.0176846 -0.06506 0)
(0.0278379 0.0435829 0)
(-0.00272058 0.0994393 0)
(-0.0163709 0.169157 0)
(-0.0329337 0.212529 0)
(-0.0463439 0.243648 0)
(-0.0566751 0.258077 0)
(-0.0627293 0.255901 0)
(-0.0657183 0.242322 0)
(-0.067184 0.224398 0)
(-0.0685253 0.206377 0)
(-0.0702477 0.189871 0)
(-0.0724721 0.175131 0)
(-0.0747901 0.161334 0)
(-0.0768715 0.147711 0)
(-0.0786036 0.134025 0)
(-0.0798574 0.120214 0)
(-0.0806744 0.106435 0)
(-0.0811005 0.0928882 0)
(-0.0811778 0.0797273 0)
(-0.0809907 0.0670914 0)
(-0.0805827 0.0550424 0)
(-0.080021 0.0436129 0)
(-0.0793428 0.032793 0)
(-0.07859 0.0225574 0)
(-0.077793 0.012868 0)
(-0.0769843 0.00367866 0)
(-0.0761978 -0.00506742 0)
(-0.0754672 -0.0134449 0)
(-0.0748317 -0.0215465 0)
(-0.07433 -0.0294908 0)
(-0.0740077 -0.0374258 0)
(-0.0739135 -0.0455348 0)
(-0.0741039 -0.0540428 0)
(-0.0746423 -0.0632198 0)
(-0.0755965 -0.0733732 0)
(-0.0770268 -0.0848196 0)
(-0.0789672 -0.0978322 0)
(-0.0814043 -0.112573 0)
(-0.0842624 -0.129034 0)
(-0.0874117 -0.147016 0)
(-0.090714 -0.166186 0)
(-0.0941253 -0.186251 0)
(-0.0978508 -0.207352 0)
(-0.102492 -0.230696 0)
(-0.108846 -0.258944 0)
(-0.116807 -0.294606 0)
(-0.12314 -0.334034 0)
(-0.120856 -0.357015 0)
(-0.097854 -0.318155 0)
(-0.0471003 -0.153814 0)
(0.0427724 0.0465709 0)
(-0.00119753 0.107928 0)
(-0.0119716 0.182905 0)
(-0.0256626 0.22547 0)
(-0.0367017 0.254179 0)
(-0.045234 0.265569 0)
(-0.0503497 0.260534 0)
(-0.0531922 0.245075 0)
(-0.0550511 0.226377 0)
(-0.0570291 0.208312 0)
(-0.0593901 0.192073 0)
(-0.062098 0.177511 0)
(-0.0647306 0.163625 0)
(-0.0670339 0.149713 0)
(-0.0689389 0.135623 0)
(-0.0703592 0.12137 0)
(-0.0713572 0.107175 0)
(-0.0719716 0.093255 0)
(-0.0722518 0.0797824 0)
(-0.0722722 0.0668962 0)
(-0.0720761 0.0546554 0)
(-0.0717261 0.0430847 0)
(-0.0712564 0.0321652 0)
(-0.0707059 0.0218651 0)
(-0.0701006 0.0121421 0)
(-0.0694682 0.00294921 0)
(-0.0688388 -0.00576865 0)
(-0.0682406 -0.0140843 0)
(-0.067708 -0.0220878 0)
(-0.0672747 -0.0298947 0)
(-0.0669806 -0.0376495 0)
(-0.0668686 -0.0455305 0)
(-0.0669882 -0.0537564 0)
(-0.067396 -0.0625915 0)
(-0.0681561 -0.0723426 0)
(-0.0693321 -0.0833382 0)
(-0.0709718 -0.0958816 0)
(-0.0730849 -0.110182 0)
(-0.0756245 -0.126286 0)
(-0.0784843 -0.144045 0)
(-0.0815267 -0.163146 0)
(-0.0846573 -0.183231 0)
(-0.087943 -0.204188 0)
(-0.0917985 -0.226718 0)
(-0.0970679 -0.253128 0)
(-0.104547 -0.286995 0)
(-0.11236 -0.328494 0)
(-0.114736 -0.363029 0)
(-0.0989076 -0.35093 0)
(-0.0649565 -0.226125 0)
(0.0332054 0.0414723 0)
(0.000324 0.113435 0)
(-0.00749752 0.193742 0)
(-0.018319 0.235974 0)
(-0.0271479 0.262784 0)
(-0.0341171 0.271844 0)
(-0.038516 0.264702 0)
(-0.0413291 0.247943 0)
(-0.0435533 0.228786 0)
(-0.0460155 0.210768 0)
(-0.0488036 0.194729 0)
(-0.0518023 0.180221 0)
(-0.0546148 0.166154 0)
(-0.0570607 0.151908 0)
(-0.0591043 0.137397 0)
(-0.0606861 0.122711 0)
(-0.0618709 0.10811 0)
(-0.0626885 0.0938285 0)
(-0.0631883 0.0800519 0)
(-0.0634339 0.0669194 0)
(-0.0634675 0.0544882 0)
(-0.0633463 0.0427744 0)
(-0.0631034 0.0317509 0)
(-0.0627746 0.0213783 0)
(-0.0623826 0.0116095 0)
(-0.0619498 0.00239567 0)
(-0.0615027 -0.00631824 0)
(-0.0610639 -0.014601 0)
(-0.0606612 -0.0225407 0)
(-0.0603236 -0.0302495 0)
(-0.0600857 -0.037868 0)
(-0.0599846 -0.0455695 0)
(-0.0600631 -0.0535654 0)
(-0.0603702 -0.0621108 0)
(-0.0609631 -0.071505 0)
(-0.061904 -0.0820777 0)
(-0.0632486 -0.0941509 0)
(-0.0650277 -0.107976 0)
(-0.067225 -0.123658 0)
(-0.0697658 -0.1411 0)
(-0.0725246 -0.159998 0)
(-0.0753755 -0.17991 0)
(-0.0782829 -0.20048 0)
(-0.081493 -0.221962 0)
(-0.0857087 -0.246227 0)
(-0.0922654 -0.277481 0)
(-0.100635 -0.319516 0)
(-0.107866 -0.363768 0)
(-0.101668 -0.373367 0)
(-0.0770878 -0.273083 0)
(0.0120657 0.018437 0)
(0.00179763 0.115831 0)
(-0.00305477 0.201602 0)
(-0.0110364 0.244158 0)
(-0.0177946 0.26965 0)
(-0.023375 0.277074 0)
(-0.0272004 0.268507 0)
(-0.0300142 0.250925 0)
(-0.0325183 0.231514 0)
(-0.0353058 0.213564 0)
(-0.0383414 0.197649 0)
(-0.0414777 0.183101 0)
(-0.0443703 0.168808 0)
(-0.0469032 0.154222 0)
(-0.049062 0.139313 0)
(-0.0507984 0.124225 0)
(-0.0521704 0.109245 0)
(-0.0531985 0.0946202 0)
(-0.0539273 0.0805504 0)
(-0.054409 0.0671766 0)
(-0.0546838 0.0545566 0)
(-0.0548033 0.042699 0)
(-0.0548001 0.0315689 0)
(-0.0547076 0.0211187 0)
(-0.0545463 0.0112956 0)
(-0.0543347 0.00204742 0)
(-0.0540941 -0.0066807 0)
(-0.0538399 -0.0149551 0)
(-0.053595 -0.0228609 0)
(-0.0533826 -0.0305068 0)
(-0.0532321 -0.0380301 0)
(-0.0531764 -0.0456005 0)
(-0.0532535 -0.0534244 0)
(-0.0535069 -0.0617502 0)
(-0.0539881 -0.0708705 0)
(-0.054756 -0.0811119 0)
(-0.0558692 -0.092805 0)
(-0.057371 -0.106228 0)
(-0.0592694 -0.121535 0)
(-0.0615242 -0.138697 0)
(-0.0640416 -0.157481 0)
(-0.0667008 -0.177478 0)
(-0.0693999 -0.198227 0)
(-0.0722281 -0.219565 0)
(-0.0756039 -0.242551 0)
(-0.0810849 -0.270784 0)
(-0.0889049 -0.309967 0)
(-0.0988817 -0.358211 0)
(-0.0994738 -0.385735 0)
(-0.0846172 -0.310098 0)
(-0.0246015 -0.022198 0)
(0.00326404 0.115265 0)
(0.00132292 0.206571 0)
(-0.00389836 0.250098 0)
(-0.00869249 0.274879 0)
(-0.0129933 0.281356 0)
(-0.0163001 0.271984 0)
(-0.0191003 0.253966 0)
(-0.0217913 0.234449 0)
(-0.0247564 0.216564 0)
(-0.027888 0.200701 0)
(-0.031046 0.186063 0)
(-0.0339464 0.171546 0)
(-0.036522 0.156647 0)
(-0.0387711 0.141376 0)
(-0.0406497 0.125919 0)
(-0.0422027 0.110585 0)
(-0.0434419 0.0956364 0)
(-0.0444028 0.0812852 0)
(-0.0451257 0.0676766 0)
(-0.0456472 0.0548702 0)
(-0.046014 0.0428689 0)
(-0.0462588 0.0316309 0)
(-0.0464132 0.0210999 0)
(-0.0464967 0.0112162 0)
(-0.0465229 0.00192323 0)
(-0.04651 -0.00683618 0)
(-0.0464671 -0.0151259 0)
(-0.0464092 -0.0230275 0)
(-0.0463533 -0.0306454 0)
(-0.0463227 -0.0381121 0)
(-0.0463452 -0.0455924 0)
(-0.046454 -0.0532869 0)
(-0.0466875 -0.0614369 0)
(-0.0470916 -0.0703263 0)
(-0.0477207 -0.0802751 0)
(-0.0486336 -0.0916156 0)
(-0.0498818 -0.104643 0)