/*--------------------------------*- C++ -*----------------------------------*\
| =========                 |                                                 |
| \\      /  F ield         | OpenFOAM: The Open Source CFD Toolbox           |
|  \\    /   O peration     | Version:  2312                                  |
|   \\  /    A nd           | Website:  www.openfoam.com                      |
|    \\/     M anipulation  |                                                 |
\*---------------------------------------------------------------------------*/
FoamFile
{
    version     2.0;
    format      ascii;
    arch        "LSB;label=32;scalar=64";
    class       volVectorField;
    location    "50";
    object      U;
}
// * * * * * * * * * * * * * * * * * * * * * * * * * * * * * * * * * * * * * //

dimensions      [0 1 -1 0 0 0 0];

internalField   nonuniform List<vector> 
10201
(
(2.99519e-06 -3.15774e-06 0)
(1.49884e-05 -7.83778e-06 0)
(3.4038e-05 -8.9412e-06 0)
(5.17517e-05 -7.63413e-06 0)
(6.31138e-05 -5.06082e-06 0)
(6.57385e-05 -1.88222e-06 0)
(5.84106e-05 1.53641e-06 0)
(4.06023e-05 4.98862e-06 0)
(1.22407e-05 8.35796e-06 0)
(-2.64575e-05 1.15788e-05 0)
(-7.50914e-05 1.46139e-05 0)
(-0.000133141 1.74425e-05 0)
(-0.00020001 2.00536e-05 0)
(-0.000275055 2.24426e-05 0)
(-0.000357603 2.46088e-05 0)
(-0.000446967 2.65543e-05 0)
(-0.000542459 2.82829e-05 0)
(-0.00064339 2.97995e-05 0)
(-0.000749082 3.11099e-05 0)
(-0.000858869 3.22205e-05 0)
(-0.000972099 3.31378e-05 0)
(-0.00108814 3.38686e-05 0)
(-0.00120637 3.44197e-05 0)
(-0.00132619 3.47979e-05 0)
(-0.00144704 3.50099e-05 0)
(-0.00156834 3.5062e-05 0)
(-0.00168956 3.49608e-05 0)
(-0.00181018 3.47123e-05 0)
(-0.0019297 3.43225e-05 0)
(-0.00204765 3.37971e-05 0)
(-0.00216355 3.31419e-05 0)
(-0.00227697 3.23621e-05 0)
(-0.00238748 3.14631e-05 0)
(-0.00249467 3.04499e-05 0)
(-0.00259816 2.93275e-05 0)
(-0.00269756 2.81008e-05 0)
(-0.00279252 2.67746e-05 0)
(-0.00288271 2.53537e-05 0)
(-0.0029678 2.3843e-05 0)
(-0.00304749 2.22472e-05 0)
(-0.00312148 2.05712e-05 0)
(-0.00318952 1.88199e-05 0)
(-0.00325134 1.69984e-05 0)
(-0.00330672 1.51118e-05 0)
(-0.00335543 1.31657e-05 0)
(-0.0033973 1.11654e-05 0)
(-0.00343213 9.11692e-06 0)
(-0.00345978 7.02613e-06 0)
(-0.00348012 4.8993e-06 0)
(-0.00349303 2.74293e-06 0)
(-0.00349843 5.63828e-07 0)
(-0.00349626 -1.63091e-06 0)
(-0.00348649 -3.8339e-06 0)
(-0.00346909 -6.03749e-06 0)
(-0.0034441 -8.23376e-06 0)
(-0.00341156 -1.04146e-05 0)
(-0.00337154 -1.25714e-05 0)
(-0.00332414 -1.46957e-05 0)
(-0.00326949 -1.67784e-05 0)
(-0.00320777 -1.88106e-05 0)
(-0.00313917 -2.07828e-05 0)
(-0.00306391 -2.26858e-05 0)
(-0.00298225 -2.45101e-05 0)
(-0.00289449 -2.62462e-05 0)
(-0.00280095 -2.78846e-05 0)
(-0.00270198 -2.94159e-05 0)
(-0.00259797 -3.08306e-05 0)
(-0.00248934 -3.21196e-05 0)
(-0.00237653 -3.32738e-05 0)
(-0.00226003 -3.42845e-05 0)
(-0.00214035 -3.51432e-05 0)
(-0.002018 -3.58418e-05 0)
(-0.00189356 -3.63727e-05 0)
(-0.0017676 -3.67286e-05 0)
(-0.00164074 -3.69029e-05 0)
(-0.0015136 -3.68894e-05 0)
(-0.00138682 -3.66826e-05 0)
(-0.00126106 -3.62777e-05 0)
(-0.001137 -3.56705e-05 0)
(-0.00101532 -3.48576e-05 0)
(-0.00089671 -3.38365e-05 0)
(-0.000781865 -3.26055e-05 0)
(-0.000671481 -3.11637e-05 0)
(-0.00056625 -2.95112e-05 0)
(-0.000466856 -2.76495e-05 0)
(-0.000373971 -2.55811e-05 0)
(-0.000288247 -2.331e-05 0)
(-0.00021031 -2.08421e-05 0)
(-0.000140752 -1.81856e-05 0)
(-8.01201e-05 -1.53519e-05 0)
(-2.88994e-05 -1.2357e-05 0)
(1.25047e-05 -9.22332e-06 0)
(4.37964e-05 -5.98363e-06 0)
(6.48306e-05 -2.6876e-06 0)
(7.56762e-05 5.86332e-07 0)
(7.67179e-05 3.70943e-06 0)
(6.88129e-05 6.46571e-06 0)
(5.35071e-05 8.49027e-06 0)
(3.3478e-05 9.14873e-06 0)
(1.3837e-05 7.40088e-06 0)
(2.48295e-06 2.48404e-06 0)
(7.7448e-06 -1.5233e-05 0)
(3.13058e-05 -3.14629e-05 0)
(6.26619e-05 -3.32562e-05 0)
(8.73031e-05 -2.4987e-05 0)
(9.57012e-05 -1.0569e-05 0)
(8.24125e-05 7.35596e-06 0)
(4.4146e-05 2.70686e-05 0)
(-2.08588e-05 4.74505e-05 0)
(-0.000113223 6.77744e-05 0)
(-0.000232766 8.75646e-05 0)
(-0.000378748 0.000106508 0)
(-0.000550038 0.000124399 0)
(-0.000745238 0.000141104 0)
(-0.000962762 0.000156539 0)
(-0.0012009 0.000170655 0)
(-0.00145788 0.000183428 0)
(-0.00173186 0.000194854 0)
(-0.00202101 0.00020494 0)
(-0.00232349 0.000213703 0)
(-0.00263746 0.000221167 0)
(-0.00296113 0.000227363 0)
(-0.00329274 0.000232324 0)
(-0.00363056 0.000236083 0)
(-0.00397291 0.00023868 0)
(-0.00431816 0.000240151 0)
(-0.00466473 0.000240535 0)
(-0.00501109 0.000239869 0)
(-0.00535575 0.000238193 0)
(-0.00569729 0.000235544 0)
(-0.00603434 0.000231959 0)
(-0.00636556 0.000227474 0)
(-0.00668969 0.000222126 0)
(-0.00700549 0.00021595 0)
(-0.0073118 0.00020898 0)
(-0.00760749 0.000201251 0)
(-0.00789149 0.000192798 0)
(-0.00816277 0.000183654 0)
(-0.00842036 0.000173853 0)
(-0.00866333 0.000163429 0)
(-0.0088908 0.000152417 0)
(-0.00910196 0.000140852 0)
(-0.00929602 0.000128769 0)
(-0.00947228 0.000116205 0)
(-0.00963005 0.000103197 0)
(-0.00976875 8.97834e-05 0)
(-0.00988781 7.6004e-05 0)
(-0.00998673 6.19002e-05 0)
(-0.0100651 4.75144e-05 0)
(-0.0101225 3.28909e-05 0)
(-0.0101587 1.80757e-05 0)
(-0.0101735 3.11623e-06 0)
(-0.0101666 -1.1938e-05 0)
(-0.010138 -2.70358e-05 0)
(-0.0100876 -4.21244e-05 0)
(-0.0100156 -5.7149e-05 0)
(-0.00992207 -7.20536e-05 0)
(-0.00980721 -8.67805e-05 0)
(-0.00967136 -0.000101271 0)
(-0.0095149 -0.000115463 0)
(-0.00933831 -0.000129298 0)
(-0.00914216 -0.000142711 0)
(-0.00892712 -0.00015564 0)
(-0.00869393 -0.000168022 0)
(-0.00844342 -0.000179794 0)
(-0.00817652 -0.000190891 0)
(-0.00789426 -0.000201253 0)
(-0.00759773 -0.000210816 0)
(-0.00728812 -0.00021952 0)
(-0.00696672 -0.000227306 0)
(-0.00663487 -0.000234117 0)
(-0.00629401 -0.000239899 0)
(-0.00594566 -0.000244598 0)
(-0.00559139 -0.000248166 0)
(-0.00523284 -0.000250557 0)
(-0.00487173 -0.000251729 0)
(-0.00450981 -0.000251645 0)
(-0.00414889 -0.000250272 0)
(-0.00379082 -0.000247581 0)
(-0.00343748 -0.000243551 0)
(-0.00309077 -0.000238163 0)
(-0.0027526 -0.000231409 0)
(-0.00242491 -0.000223284 0)
(-0.00210961 -0.000213793 0)
(-0.0018086 -0.000202949 0)
(-0.00152373 -0.000190774 0)
(-0.00125681 -0.000177302 0)
(-0.0010096 -0.000162579 0)
(-0.00078373 -0.00014667 0)
(-0.000580738 -0.000129659 0)
(-0.000401993 -0.000111656 0)
(-0.000248661 -9.28078e-05 0)
(-0.000121646 -7.33108e-05 0)
(-2.15049e-05 -5.34316e-05 0)
(5.16637e-05 -3.35399e-05 0)
(9.83753e-05 -1.41602e-05 0)
(0.000119984 3.94621e-06 0)
(0.000118984 1.96579e-05 0)
(9.93399e-05 3.13169e-05 0)
(6.69993e-05 3.64694e-05 0)
(3.16594e-05 3.16682e-05 0)
(7.38697e-06 1.38234e-05 0)
(8.93655e-06 -3.41905e-05 0)
(3.33274e-05 -6.28223e-05 0)
(6.07676e-05 -6.05923e-05 0)
(7.40349e-05 -3.66267e-05 0)
(6.16588e-05 1.72277e-06 0)
(1.65823e-05 4.89957e-05 0)
(-6.57885e-05 0.000101281 0)
(-0.000188122 0.00015583 0)
(-0.000351551 0.000210723 0)
(-0.000556057 0.000264619 0)
(-0.000800769 0.000316586 0)
(-0.00108419 0.000365975 0)
(-0.00140438 0.00041234 0)
(-0.00175905 0.000455383 0)
(-0.0021457 0.00049491 0)
(-0.00256167 0.000530809 0)
(-0.0030042 0.000563022 0)
(-0.00347048 0.000591538 0)
(-0.00395768 0.000616377 0)
(-0.00446297 0.000637584 0)
(-0.00498355 0.000655223 0)
(-0.00551664 0.000669368 0)
(-0.00605955 0.000680108 0)
(-0.00660961 0.000687535 0)
(-0.00716424 0.000691748 0)
(-0.00772092 0.000692847 0)
(-0.00827721 0.000690935 0)
(-0.00883075 0.000686116 0)
(-0.00937925 0.000678494 0)
(-0.0099205 0.000668171 0)
(-0.0104524 0.00065525 0)
(-0.0109728 0.000639833 0)
(-0.0114799 0.00062202 0)
(-0.0119717 0.000601911 0)
(-0.0124463 0.000579606 0)
(-0.0129022 0.000555203 0)
(-0.0133376 0.000528801 0)
(-0.0137509 0.0005005 0)
(-0.0141407 0.000470399 0)
(-0.0145056 0.000438599 0)
(-0.0148442 0.000405204 0)
(-0.0151553 0.000370316 0)
(-0.0154378 0.000334044 0)
(-0.0156905 0.000296498 0)
(-0.0159125 0.000257789 0)
(-0.0161029 0.000218035 0)
(-0.016261 0.000177356 0)
(-0.0163861 0.000135877 0)
(-0.0164775 9.37274e-05 0)
(-0.0165348 5.104e-05 0)
(-0.0165576 7.95338e-06 0)
(-0.0165458 -3.53891e-05 0)
(-0.0164991 -7.88394e-05 0)
(-0.0164176 -0.000122245 0)
(-0.0163013 -0.000165448 0)
(-0.0161505 -0.000208287 0)
(-0.0159656 -0.000250597 0)
(-0.0157471 -0.000292207 0)
(-0.0154956 -0.000332946 0)
(-0.0152119 -0.000372637 0)
(-0.014897 -0.000411103 0)
(-0.0145518 -0.000448165 0)
(-0.0141777 -0.000483643 0)
(-0.0137759 -0.000517357 0)
(-0.0133479 -0.000549128 0)
(-0.0128954 -0.000578778 0)
(-0.0124202 -0.000606133 0)
(-0.011924 -0.000631023 0)
(-0.0114091 -0.000653281 0)
(-0.0108775 -0.000672746 0)
(-0.0103315 -0.000689266 0)
(-0.00977359 -0.000702695 0)
(-0.00920618 -0.000712896 0)
(-0.00863193 -0.000719744 0)
(-0.00805353 -0.000723123 0)
(-0.00747376 -0.000722933 0)
(-0.00689549 -0.000719083 0)
(-0.00632163 -0.000711502 0)
(-0.00575514 -0.000700131 0)
(-0.005199 -0.000684933 0)
(-0.00465623 -0.000665886 0)
(-0.00412984 -0.000642994 0)
(-0.0036228 -0.000616282 0)
(-0.00313806 -0.000585801 0)
(-0.00267849 -0.000551635 0)
(-0.00224688 -0.000513902 0)
(-0.00184586 -0.000472762 0)
(-0.00147794 -0.000428426 0)
(-0.00114538 -0.000381168 0)
(-0.000850173 -0.000331343 0)
(-0.000593982 -0.000279414 0)
(-0.000378021 -0.000225983 0)
(-0.000202948 -0.000171844 0)
(-6.87072e-05 -0.000118059 0)
(2.56713e-05 -6.60648e-05 0)
(8.2342e-05 -1.78255e-05 0)
(0.000104974 2.39565e-05 0)
(9.90518e-05 5.55783e-05 0)
(7.22895e-05 7.206e-05 0)
(3.65524e-05 6.70227e-05 0)
(9.1423e-06 3.3447e-05 0)
(7.72117e-06 -5.19935e-05 0)
(2.53841e-05 -8.76861e-05 0)
(3.74182e-05 -7.39766e-05 0)
(2.63716e-05 -2.54104e-05 0)
(-1.97343e-05 4.70303e-05 0)
(-0.000108668 0.000134904 0)
(-0.000245659 0.000231878 0)
(-0.000433863 0.000333292 0)
(-0.000674724 0.000435748 0)
(-0.000968335 0.000536778 0)
(-0.00131375 0.000634596 0)
(-0.00170921 0.000727916 0)
(-0.00215238 0.000815826 0)
(-0.00264044 0.000897688 0)
(-0.00317027 0.00097307 0)
(-0.00373849 0.0010417 0)
(-0.00434159 0.00110341 0)
(-0.00497593 0.00115814 0)
(-0.00563784 0.00120589 0)
(-0.00632363 0.00124671 0)
(-0.0070296 0.0012807 0)
(-0.00775212 0.00130798 0)
(-0.0084876 0.00132869 0)
(-0.0092325 0.00134301 0)
(-0.00998337 0.00135109 0)
(-0.0107369 0.00135314 0)
(-0.0114897 0.00134933 0)
(-0.0122387 0.00133986 0)
(-0.0129808 0.00132493 0)
(-0.013713 0.00130472 0)
(-0.0144324 0.00127945 0)
(-0.0151363 0.00124929 0)
(-0.0158221 0.00121445 0)
(-0.0164871 0.00117511 0)
(-0.0171289 0.00113148 0)
(-0.0177452 0.00108374 0)
(-0.0183337 0.0010321 0)
(-0.0188923 0.000976732 0)
(-0.0194191 0.000917851 0)
(-0.019912 0.000855649 0)
(-0.0203693 0.000790332 0)
(-0.0207893 0.000722104 0)
(-0.0211706 0.000651177 0)
(-0.0215115 0.00057777 0)
(-0.0218109 0.000502104 0)
(-0.0220676 0.00042441 0)
(-0.0222804 0.000344925 0)
(-0.0224486 0.000263896 0)
(-0.0225713 0.000181576 0)
(-0.0226478 9.82284e-05 0)
(-0.0226778 1.4124e-05 0)
(-0.0226609 -7.04561e-05 0)
(-0.0225969 -0.000155222 0)
(-0.0224859 -0.000239876 0)
(-0.0223279 -0.000324111 0)
(-0.0221234 -0.00040761 0)
(-0.0218729 -0.000490053 0)
(-0.021577 -0.000571109 0)
(-0.0212367 -0.000650443 0)
(-0.020853 -0.000727715 0)
(-0.0204272 -0.00080258 0)
(-0.0199607 -0.000874693 0)
(-0.0194551 -0.000943706 0)
(-0.0189123 -0.00100927 0)
(-0.0183343 -0.00107104 0)
(-0.0177233 -0.00112868 0)
(-0.0170817 -0.00118185 0)
(-0.0164119 -0.00123022 0)
(-0.0157169 -0.00127348 0)
(-0.0149993 -0.00131131 0)
(-0.0142625 -0.00134343 0)
(-0.0135094 -0.00136955 0)
(-0.0127436 -0.00138943 0)
(-0.0119684 -0.00140281 0)
(-0.0111876 -0.0014095 0)
(-0.0104047 -0.00140928 0)
(-0.00962363 -0.00140201 0)
(-0.00884825 -0.00138755 0)
(-0.00808247 -0.0013658 0)
(-0.00733025 -0.0013367 0)
(-0.00659557 -0.00130022 0)
(-0.00588238 -0.00125639 0)
(-0.00519462 -0.00120526 0)
(-0.00453612 -0.00114697 0)
(-0.00391063 -0.0010817 0)
(-0.00332177 -0.0010097 0)
(-0.00277294 -0.000931322 0)
(-0.00226733 -0.000847 0)
(-0.0018078 -0.000757309 0)
(-0.00139686 -0.000662974 0)
(-0.00103652 -0.000564925 0)
(-0.000728223 -0.000464352 0)
(-0.000472682 -0.000362792 0)
(-0.000269709 -0.00026224 0)
(-0.000118004 -0.00016531 0)
(-1.48906e-05 -7.54442e-05 0)
(4.39943e-05 2.81766e-06 0)
(6.4961e-05 6.35169e-05 0)
(5.66227e-05 9.89826e-05 0)
(3.17193e-05 9.96292e-05 0)
(8.53728e-06 5.35511e-05 0)
(5.25223e-06 -6.36738e-05 0)
(1.13525e-05 -9.66508e-05 0)
(-2.00965e-07 -6.20653e-05 0)
(-4.50435e-05 2.05253e-05 0)
(-0.000134575 0.000136641 0)
(-0.00027664 0.000274962 0)
(-0.000476584 0.000426758 0)
(-0.000737678 0.00058541 0)
(-0.00106144 0.000745934 0)
(-0.00144795 0.000904598 0)
(-0.00189616 0.00105862 0)
(-0.00240409 0.00120595 0)
(-0.00296906 0.00134509 0)
(-0.00358783 0.00147496 0)
(-0.00425677 0.00159479 0)
(-0.00497192 0.00170409 0)
(-0.00572911 0.00180254 0)
(-0.00652403 0.00188998 0)
(-0.00735227 0.00196635 0)
(-0.0082094 0.00203169 0)
(-0.00909096 0.00208613 0)
(-0.00999253 0.00212983 0)
(-0.0109097 0.00216298 0)
(-0.0118383 0.00218584 0)
(-0.0127739 0.00219865 0)
(-0.0137125 0.00220171 0)
(-0.01465 0.0021953 0)
(-0.0155826 0.00217972 0)
(-0.0165064 0.00215527 0)
(-0.0174177 0.00212227 0)
(-0.0183131 0.00208102 0)
(-0.019189 0.00203184 0)
(-0.0200421 0.00197504 0)
(-0.0208694 0.00191093 0)
(-0.0216677 0.00183983 0)
(-0.0224341 0.00176204 0)
(-0.0231659 0.00167789 0)
(-0.0238604 0.00158769 0)
(-0.0245151 0.00149177 0)
(-0.0251276 0.00139045 0)
(-0.0256958 0.00128407 0)
(-0.0262176 0.00117296 0)
(-0.026691 0.00105747 0)
(-0.0271142 0.00093796 0)
(-0.0274857 0.000814795 0)
(-0.027804 0.000688352 0)
(-0.0280677 0.000559021 0)
(-0.0282758 0.000427203 0)
(-0.0284274 0.000293315 0)
(-0.0285216 0.000157785 0)
(-0.0285579 2.10565e-05 0)
(-0.0285359 -0.000116412 0)
(-0.0284555 -0.000254151 0)
(-0.0283165 -0.000391672 0)
(-0.0281194 -0.000528479 0)
(-0.0278645 -0.00066406 0)
(-0.0275524 -0.000797892 0)
(-0.0271841 -0.000929441 0)
(-0.0267606 -0.00105817 0)
(-0.0262834 -0.00118352 0)
(-0.0257539 -0.00130494 0)
(-0.0251739 -0.00142187 0)
(-0.0245456 -0.00153376 0)
(-0.0238711 -0.00164004 0)
(-0.023153 -0.00174016 0)
(-0.022394 -0.00183358 0)
(-0.0215969 -0.00191975 0)
(-0.0207651 -0.00199814 0)
(-0.0199018 -0.00206826 0)
(-0.0190107 -0.00212961 0)
(-0.0180955 -0.00218173 0)
(-0.0171602 -0.00222417 0)
(-0.0162088 -0.00225652 0)
(-0.0152458 -0.00227842 0)
(-0.0142754 -0.00228951 0)
(-0.0133023 -0.00228952 0)
(-0.0123311 -0.00227818 0)
(-0.0113666 -0.00225529 0)
(-0.0104134 -0.00222071 0)
(-0.00947655 -0.00217436 0)
(-0.00856075 -0.00211621 0)
(-0.00767084 -0.00204632 0)
(-0.00681157 -0.00196482 0)
(-0.00598757 -0.00187195 0)
(-0.00520335 -0.00176802 0)
(-0.00446323 -0.00165349 0)
(-0.00377127 -0.00152894 0)
(-0.00313125 -0.00139513 0)
(-0.00254653 -0.00125303 0)
(-0.00202002 -0.00110382 0)
(-0.00155405 -0.000949046 0)
(-0.00115026 -0.000790605 0)
(-0.00080942 -0.000630924 0)
(-0.000531302 -0.000473082 0)
(-0.000314442 -0.000321006 0)
(-0.000155911 -0.000179722 0)
(-5.10506e-05 -5.56636e-05 0)
(6.76868e-06 4.29562e-05 0)
(2.64673e-05 0.000105813 0)
(2.06527e-05 0.000120103 0)
(6.62315e-06 6.91648e-05 0)
(2.18182e-06 -6.68452e-05 0)
(-6.20552e-06 -8.4269e-05 0)
(-4.6866e-05 -1.77437e-05 0)
(-0.000132224 0.000109089 0)
(-0.000272282 0.000278625 0)
(-0.000474459 0.000476902 0)
(-0.000743811 0.000692928 0)
(-0.00108339 0.000918173 0)
(-0.00149457 0.00114606 0)
(-0.00197727 0.00137155 0)
(-0.00253025 0.00159079 0)
(-0.00315129 0.00180087 0)
(-0.00383739 0.00199963 0)
(-0.00458495 0.00218546 0)
(-0.00538988 0.00235722 0)
(-0.00624772 0.0025141 0)
(-0.00715376 0.00265558 0)
(-0.00810309 0.00278136 0)
(-0.00909068 0.00289132 0)
(-0.0101114 0.00298546 0)
(-0.0111602 0.00306388 0)
(-0.0122319 0.0031268 0)
(-0.0133215 0.00317447 0)
(-0.0144239 0.00320721 0)
(-0.0155343 0.00322537 0)
(-0.0166478 0.00322932 0)
(-0.0177596 0.00321949 0)
(-0.0188653 0.00319627 0)
(-0.0199603 0.00316011 0)
(-0.0210403 0.00311145 0)
(-0.0221011 0.00305073 0)
(-0.0231388 0.00297839 0)
(-0.0241493 0.00289489 0)
(-0.025129 0.00280069 0)
(-0.0260742 0.00269623 0)
(-0.0269816 0.00258199 0)
(-0.0278478 0.00245841 0)
(-0.0286698 0.00232598 0)
(-0.0294445 0.00218516 0)
(-0.0301692 0.00203645 0)
(-0.0308412 0.00188031 0)
(-0.0314582 0.00171727 0)
(-0.0320179 0.00154783 0)
(-0.0325181 0.00137251 0)
(-0.0329569 0.00119186 0)
(-0.0333327 0.00100644 0)
(-0.0336439 0.000816817 0)
(-0.0338893 0.000623585 0)
(-0.0340677 0.000427356 0)
(-0.0341783 0.000228761 0)
(-0.0342203 2.84524e-05 0)
(-0.0341933 -0.0001729 0)
(-0.0340972 -0.000374603 0)
(-0.033932 -0.000575948 0)
(-0.033698 -0.000776204 0)
(-0.0333957 -0.000974625 0)
(-0.0330258 -0.00117045 0)
(-0.0325896 -0.00136289 0)
(-0.0320881 -0.00155117 0)
(-0.0315232 -0.00173449 0)
(-0.0308966 -0.00191203 0)
(-0.0302104 -0.00208298 0)
(-0.0294671 -0.00224654 0)
(-0.0286693 -0.00240189 0)
(-0.02782 -0.00254824 0)
(-0.0269223 -0.00268478 0)
(-0.0259798 -0.00281074 0)
(-0.0249961 -0.00292536 0)
(-0.0239752 -0.00302791 0)
(-0.0229214 -0.00311769 0)
(-0.0218389 -0.00319402 0)
(-0.0207326 -0.00325628 0)
(-0.0196071 -0.00330388 0)
(-0.0184675 -0.00333627 0)
(-0.0173189 -0.003353 0)
(-0.0161668 -0.00335363 0)
(-0.0150164 -0.00333782 0)
(-0.0138733 -0.0033053 0)
(-0.012743 -0.00325587 0)
(-0.0116312 -0.00318943 0)
(-0.0105434 -0.00310599 0)
(-0.00948523 -0.00300563 0)
(-0.00846212 -0.0028886 0)
(-0.00747943 -0.00275525 0)
(-0.00654232 -0.0026061 0)
(-0.00565573 -0.00244183 0)
(-0.0048243 -0.00226336 0)
(-0.0040523 -0.0020718 0)
(-0.00334356 -0.00186858 0)
(-0.00270134 -0.00165549 0)
(-0.00212826 -0.00143472 0)
(-0.00162616 -0.00120901 0)
(-0.00119595 -0.000981766 0)
(-0.000837447 -0.000757225 0)
(-0.000549201 -0.000540693 0)
(-0.000328279 -0.000338801 0)
(-0.000170047 -0.000159852 0)
(-6.79523e-05 -1.42224e-05 0)
(-1.32313e-05 8.5259e-05 0)
(5.79991e-06 0.000122816 0)
(4.03441e-06 7.77616e-05 0)
(-1.14076e-06 -6.02602e-05 0)
(-2.56708e-05 -4.71202e-05 0)
(-9.89395e-05 6.38384e-05 0)
(-0.00022935 0.00024591 0)
(-0.000424941 0.000478887 0)
(-0.00069232 0.000746491 0)
(-0.00103592 0.00103568 0)
(-0.00145831 0.00133615 0)
(-0.00196048 0.00163979 0)
(-0.00254207 0.00194025 0)
(-0.00320153 0.0022326 0)
(-0.00393636 0.00251304 0)
(-0.00474322 0.00277869 0)
(-0.00561815 0.00302737 0)
(-0.00655664 0.00325747 0)
(-0.00755381 0.00346787 0)
(-0.00860443 0.0036578 0)
(-0.00970308 0.00382678 0)
(-0.0108442 0.00397456 0)
(-0.0120221 0.0041011 0)
(-0.013231 0.0042065 0)
(-0.0144653 0.00429097 0)
(-0.0157192 0.00435483 0)
(-0.0169871 0.00439846 0)
(-0.0182634 0.00442231 0)
(-0.0195428 0.00442686 0)
(-0.0208199 0.00441265 0)
(-0.0220894 0.00438021 0)
(-0.0233463 0.00433012 0)
(-0.0245858 0.00426297 0)
(-0.0258029 0.00417935 0)
(-0.0269932 0.00407986 0)
(-0.0281522 0.00396511 0)
(-0.0292756 0.00383571 0)
(-0.0303593 0.0036923 0)
(-0.0313995 0.00353549 0)
(-0.0323922 0.00336592 0)
(-0.0333341 0.00318423 0)
(-0.0342217 0.00299108 0)
(-0.0350519 0.00278712 0)
(-0.0358216 0.00257302 0)
(-0.0365281 0.00234949 0)
(-0.0371687 0.00211722 0)
(-0.0377412 0.00187694 0)
(-0.0382432 0.00162939 0)
(-0.038673 0.00137535 0)
(-0.0390288 0.00111559 0)
(-0.039309 0.000850939 0)
(-0.0395126 0.000582232 0)
(-0.0396383 0.000310336 0)
(-0.0396856 3.61428e-05 0)
(-0.039654 -0.000239426 0)
(-0.0395431 -0.000515426 0)
(-0.0393532 -0.000790885 0)
(-0.0390844 -0.00106481 0)
(-0.0387376 -0.00133617 0)
(-0.0383135 -0.00160394 0)
(-0.0378134 -0.00186705 0)
(-0.0372388 -0.00212442 0)
(-0.0365915 -0.00237498 0)
(-0.0358737 -0.00261762 0)
(-0.0350878 -0.00285125 0)
(-0.0342365 -0.00307475 0)
(-0.0333229 -0.00328704 0)
(-0.0323503 -0.00348702 0)
(-0.0313224 -0.00367363 0)
(-0.0302431 -0.00384581 0)
(-0.0291167 -0.00400255 0)
(-0.0279476 -0.00414284 0)
(-0.0267406 -0.00426575 0)
(-0.0255007 -0.00437037 0)
(-0.0242332 -0.00445585 0)
(-0.0229435 -0.00452143 0)
(-0.0216372 -0.00456637 0)
(-0.0203203 -0.00459005 0)
(-0.0189987 -0.00459192 0)
(-0.0176785 -0.00457152 0)
(-0.0163659 -0.00452851 0)
(-0.0150672 -0.00446264 0)
(-0.0137887 -0.0043738 0)
(-0.0125366 -0.00426202 0)
(-0.0113172 -0.00412747 0)
(-0.0101366 -0.0039705 0)
(-0.0090008 -0.00379163 0)
(-0.00791552 -0.00359161 0)
(-0.00688627 -0.0033714 0)
(-0.0059182 -0.00313227 0)
(-0.00501604 -0.0028758 0)
(-0.00418403 -0.00260392 0)
(-0.00342579 -0.00231907 0)
(-0.00274422 -0.00202418 0)
(-0.00214142 -0.00172288 0)
(-0.00161849 -0.00141961 0)
(-0.00117543 -0.00111981 0)
(-0.00081095 -0.000830162 0)
(-0.000522335 -0.000558866 0)
(-0.000305242 -0.000316006 0)
(-0.000153511 -0.000113962 0)
(-5.89028e-05 3.21799e-05 0)
(-1.12277e-05 0.000104082 0)
(1.12834e-06 7.79313e-05 0)
(-4.52671e-06 -4.33068e-05 0)
(-4.60308e-05 1.68262e-05 0)
(-0.000153958 0.000185819 0)
(-0.000332296 0.000434825 0)
(-0.000586774 0.000741588 0)
(-0.000922901 0.00108789 0)
(-0.00134423 0.00145892 0)
(-0.00185261 0.00184275 0)
(-0.0024485 0.00222984 0)
(-0.00313107 0.00261263 0)
(-0.00389839 0.0029851 0)
(-0.00474758 0.00334259 0)
(-0.00567495 0.00368145 0)
(-0.00667615 0.00399891 0)
(-0.00774628 0.0042929 0)
(-0.00888002 0.00456191 0)
(-0.0100717 0.00480488 0)
(-0.0113155 0.00502115 0)
(-0.0126052 0.00521033 0)
(-0.0139347 0.00537229 0)
(-0.0152978 0.0055071 0)
(-0.0166881 0.00561499 0)
(-0.0180994 0.00569631 0)
(-0.0195255 0.00575151 0)
(-0.0209604 0.00578113 0)
(-0.0223979 0.00578578 0)
(-0.0238322 0.00576609 0)
(-0.0252575 0.00572276 0)
(-0.0266683 0.0056565 0)
(-0.028059 0.00556806 0)
(-0.0294244 0.00545819 0)
(-0.0307593 0.00532767 0)
(-0.0320588 0.00517728 0)
(-0.0333182 0.00500782 0)
(-0.0345329 0.00482009 0)
(-0.0356985 0.0046149 0)
(-0.0368109 0.00439308 0)
(-0.037866 0.00415548 0)
(-0.0388602 0.00390293 0)
(-0.0397899 0.00363631 0)
(-0.0406518 0.0033565 0)
(-0.0414426 0.00306439 0)
(-0.0421597 0.00276093 0)
(-0.0428003 0.00244706 0)
(-0.043362 0.00212374 0)
(-0.0438426 0.00179199 0)
(-0.0442404 0.00145285 0)
(-0.0445535 0.00110737 0)
(-0.0447807 0.000756658 0)
(-0.0449209 0.000401841 0)
(-0.0449732 4.40878e-05 0)
(-0.0449371 -0.000315403 0)
(-0.0448125 -0.000675397 0)
(-0.0445993 -0.00103463 0)
(-0.0442979 -0.0013918 0)
(-0.0439092 -0.0017456 0)
(-0.0434341 -0.00209465 0)
(-0.0428739 -0.0024376 0)
(-0.0422305 -0.00277304 0)
(-0.0415058 -0.00309956 0)
(-0.0407022 -0.00341575 0)
(-0.0398224 -0.00372019 0)
(-0.0388694 -0.00401143 0)
(-0.0378468 -0.00428807 0)
(-0.0367581 -0.00454871 0)
(-0.0356074 -0.00479196 0)
(-0.0343992 -0.00501647 0)
(-0.033138 -0.00522091 0)
(-0.031829 -0.00540403 0)
(-0.0304773 -0.0055646 0)
(-0.0290885 -0.00570146 0)
(-0.0276684 -0.00581354 0)
(-0.0262231 -0.00589984 0)
(-0.0247588 -0.00595944 0)
(-0.0232819 -0.00599155 0)
(-0.0217991 -0.00599546 0)
(-0.0203172 -0.00597063 0)
(-0.0188429 -0.00591661 0)
(-0.0173831 -0.00583313 0)
(-0.0159447 -0.00572006 0)
(-0.0145348 -0.00557748 0)
(-0.01316 -0.00540565 0)
(-0.0118272 -0.00520504 0)
(-0.0105427 -0.00497637 0)
(-0.00931309 -0.00472065 0)
(-0.00814418 -0.00443918 0)
(-0.00704166 -0.0041336 0)
(-0.00601069 -0.00380599 0)
(-0.00505589 -0.00345886 0)
(-0.00418124 -0.00309532 0)
(-0.00338999 -0.00271911 0)
(-0.00268452 -0.00233476 0)
(-0.00206621 -0.00194777 0)
(-0.00153534 -0.00156477 0)
(-0.00109097 -0.00119378 0)
(-0.000730743 -0.000844505 0)
(-0.00045085 -0.000528669 0)
(-0.000245764 -0.000260454 0)
(-0.000108051 -5.68899e-05 0)
(-2.93845e-05 6.15965e-05 0)
(-1.892e-06 6.89197e-05 0)
(-7.87698e-06 -1.57724e-05 0)
(-6.66628e-05 0.000108604 0)
(-0.000210282 0.000350016 0)
(-0.000438192 0.000678233 0)
(-0.000753627 0.00106947 0)
(-0.00116081 0.00150397 0)
(-0.00166221 0.00196539 0)
(-0.00225881 0.00244043 0)
(-0.00295034 0.00291826 0)
(-0.00373541 0.00339016 0)
(-0.00461158 0.00384914 0)
(-0.00557554 0.00428963 0)
(-0.00662317 0.00470729 0)
(-0.00774973 0.00509873 0)
(-0.00894991 0.00546139 0)
(-0.010218 0.00579336 0)
(-0.0115479 0.0060933 0)
(-0.0129332 0.00636031 0)
(-0.0143675 0.00659385 0)
(-0.015844 0.0067937 0)
(-0.017356 0.00695989 0)
(-0.0188968 0.00709263 0)
(-0.0204596 0.00719231 0)
(-0.0220377 0.00725946 0)
(-0.0236245 0.00729469 0)
(-0.0252134 0.00729871 0)
(-0.026798 0.00727231 0)
(-0.0283721 0.00721632 0)
(-0.0299295 0.00713161 0)
(-0.0314644 0.00701908 0)
(-0.0329708 0.00687967 0)
(-0.0344433 0.00671434 0)
(-0.0358764 0.00652406 0)
(-0.037265 0.00630982 0)
(-0.038604 0.00607263 0)
(-0.0398887 0.0058135 0)
(-0.0411146 0.00553348 0)
(-0.0422771 0.00523361 0)
(-0.0433723 0.00491497 0)
(-0.0443963 0.00457864 0)
(-0.0453455 0.00422576 0)
(-0.0462163 0.00385744 0)
(-0.0470057 0.00347487 0)
(-0.0477109 0.00307924 0)
(-0.0483291 0.00267178 0)
(-0.048858 0.00225376 0)
(-0.0492955 0.0018265 0)
(-0.0496399 0.00139132 0)
(-0.0498896 0.000949614 0)
(-0.0500436 0.000502812 0)
(-0.0501008 5.23791e-05 0)
(-0.0500607 -0.000400176 0)
(-0.0499231 -0.000853304 0)
(-0.0496882 -0.00130541 0)
(-0.0493562 -0.00175488 0)
(-0.0489281 -0.00220004 0)
(-0.048405 -0.00263919 0)
(-0.0477884 -0.00307063 0)
(-0.0470801 -0.00349259 0)
(-0.0462823 -0.00390333 0)
(-0.0453978 -0.00430105 0)
(-0.0444294 -0.004684 0)
(-0.0433805 -0.00505038 0)
(-0.0422548 -0.00539842 0)
(-0.0410563 -0.00572639 0)
(-0.0397896 -0.00603255 0)
(-0.0384593 -0.00631523 0)
(-0.0370705 -0.00657278 0)
(-0.0356288 -0.00680363 0)
(-0.0341397 -0.00700627 0)
(-0.0326095 -0.00717926 0)
(-0.0310444 -0.00732128 0)
(-0.0294509 -0.00743108 0)
(-0.027836 -0.00750755 0)
(-0.0262065 -0.0075497 0)
(-0.0245696 -0.0075567 0)
(-0.0229327 -0.00752785 0)
(-0.0213032 -0.00746266 0)
(-0.0196885 -0.00736078 0)
(-0.0180961 -0.00722212 0)
(-0.0165336 -0.00704678 0)
(-0.0150083 -0.00683513 0)
(-0.0135274 -0.0065878 0)
(-0.0120981 -0.00630573 0)
(-0.0107271 -0.0059902 0)
(-0.00942088 -0.00564286 0)
(-0.00818558 -0.0052658 0)
(-0.00702678 -0.0048616 0)
(-0.00594948 -0.00443339 0)
(-0.00495807 -0.00398498 0)
(-0.00405614 -0.00352092 0)
(-0.00324642 -0.00304668 0)
(-0.00253068 -0.00256879 0)
(-0.00190958 -0.00209505 0)
(-0.00138263 -0.00163475 0)
(-0.000948026 -0.00119899 0)
(-0.000602635 -0.000800967 0)
(-0.000341762 -0.000456448 0)
(-0.000158971 -0.000184083 0)
(-4.80049e-05 -5.92149e-06 0)
(-4.91404e-06 5.03996e-05 0)
(-1.11419e-05 2.23188e-05 0)
(-8.71892e-05 0.000228583 0)
(-0.000266842 0.000557303 0)
(-0.00054507 0.000977452 0)
(-0.000922555 0.00146417 0)
(-0.00140212 0.00199651 0)
(-0.00198503 0.00255691 0)
(-0.00267125 0.00313087 0)
(-0.00345967 0.00370645 0)
(-0.00434821 0.00427388 0)
(-0.00533386 0.00482525 0)
(-0.00641278 0.0053542 0)
(-0.00758038 0.00585567 0)
(-0.00883148 0.00632568 0)
(-0.0101604 0.00676118 0)
(-0.0115609 0.00715989 0)
(-0.0130265 0.00752013 0)
(-0.0145504 0.00784078 0)
(-0.0161258 0.00812114 0)
(-0.0177454 0.00836088 0)
(-0.019402 0.00855996 0)
(-0.0210886 0.0087186 0)
(-0.0227978 0.00883722 0)
(-0.0245224 0.00891638 0)
(-0.0262555 0.0089568 0)
(-0.0279899 0.00895931 0)
(-0.0297188 0.00892482 0)
(-0.0314355 0.0088543 0)
(-0.0331334 0.00874878 0)
(-0.0348061 0.00860936 0)
(-0.0364474 0.00843716 0)
(-0.0380513 0.00823331 0)
(-0.0396119 0.007999 0)
(-0.0411237 0.00773543 0)
(-0.0425812 0.00744382 0)
(-0.0439794 0.00712541 0)
(-0.0453132 0.00678147 0)
(-0.0465781 0.00641328 0)
(-0.0477694 0.00602216 0)
(-0.0488832 0.00560943 0)
(-0.0499154 0.00517648 0)
(-0.0508623 0.00472469 0)
(-0.0517207 0.0042555 0)
(-0.0524872 0.00377038 0)
(-0.0531592 0.00327084 0)
(-0.0537341 0.00275845 0)
(-0.0542096 0.00223479 0)
(-0.0545839 0.00170152 0)
(-0.0548553 0.00116033 0)
(-0.0550225 0.000612969 0)
(-0.0550847 6.12343e-05 0)
(-0.0550411 -0.000493031 0)
(-0.0548917 -0.00104793 0)
(-0.0546364 -0.00160153 0)
(-0.0542758 -0.00215183 0)
(-0.0538107 -0.00269682 0)
(-0.0532424 -0.00323442 0)
(-0.0525725 -0.00376254 0)
(-0.051803 -0.00427906 0)
(-0.0509363 -0.00478183 0)
(-0.0499753 -0.00526869 0)
(-0.048923 -0.00573749 0)
(-0.0477833 -0.00618605 0)
(-0.0465599 -0.00661224 0)
(-0.0452574 -0.00701394 0)
(-0.0438804 -0.00738905 0)
(-0.0424341 -0.00773554 0)
(-0.0409241 -0.00805143 0)
(-0.039356 -0.00833481 0)
(-0.0377361 -0.00858385 0)
(-0.036071 -0.00879683 0)
(-0.0343673 -0.00897213 0)
(-0.0326322 -0.00910828 0)
(-0.0308729 -0.00920394 0)
(-0.0290969 -0.00925793 0)
(-0.027312 -0.00926925 0)
(-0.0255259 -0.00923708 0)
(-0.0237466 -0.00916085 0)
(-0.0219822 -0.00904017 0)
(-0.0202407 -0.00887495 0)
(-0.01853 -0.00866536 0)
(-0.016858 -0.00841186 0)
(-0.0152326 -0.00811526 0)
(-0.0136612 -0.00777674 0)
(-0.0121512 -0.00739788 0)
(-0.0107096 -0.00698069 0)
(-0.00934279 -0.00652773 0)
(-0.00805687 -0.00604211 0)
(-0.00685726 -0.00552758 0)
(-0.00574875 -0.00498868 0)
(-0.00473533 -0.00443076 0)
(-0.00382017 -0.00386022 0)
(-0.00300547 -0.0032846 0)
(-0.0022924 -0.00271281 0)
(-0.001681 -0.00215532 0)
(-0.00117016 -0.00162451 0)
(-0.000757555 -0.00113491 0)
(-0.000439447 -0.000703601 0)
(-0.00021052 -0.000350563 0)
(-6.6673e-05 -9.90536e-05 0)
(-7.87753e-06 2.23063e-05 0)
(-1.4299e-05 7.08063e-05 0)
(-0.000107387 0.000376701 0)
(-0.000322947 0.000807896 0)
(-0.000651607 0.00133301 0)
(-0.00109151 0.00192649 0)
(-0.00164403 0.00256649 0)
(-0.00230916 0.00323451 0)
(-0.00308572 0.00391506 0)
(-0.0039717 0.00459523 0)
(-0.00496423 0.00526436 0)
(-0.00605963 0.00591371 0)
(-0.00725347 0.00653617 0)
(-0.00854065 0.00712601 0)
(-0.00991551 0.00767873 0)
(-0.0113719 0.00819078 0)
(-0.0129031 0.00865949 0)
(-0.0145024 0.00908289 0)
(-0.0161624 0.00945962 0)
(-0.0178759 0.00978881 0)
(-0.0196352 0.01007 0)
(-0.0214328 0.0103031 0)
(-0.023261 0.0104884 0)
(-0.0251123 0.0106262 0)
(-0.0269788 0.0107172 0)
(-0.0288533 0.0107622 0)
(-0.0307282 0.0107621 0)
(-0.0325962 0.010718 0)
(-0.0344502 0.0106309 0)
(-0.0362831 0.0105022 0)
(-0.0380883 0.0103331 0)
(-0.039859 0.0101249 0)
(-0.0415888 0.00987884 0)
(-0.0432716 0.00959647 0)
(-0.0449013 0.00927915 0)
(-0.0464723 0.00892833 0)
(-0.047979 0.00854549 0)
(-0.0494161 0.00813215 0)
(-0.0507787 0.00768983 0)
(-0.052062 0.00722011 0)
(-0.0532616 0.00672459 0)
(-0.0543732 0.0062049 0)
(-0.0553929 0.00566272 0)
(-0.0563171 0.00509977 0)
(-0.0571425 0.00451782 0)
(-0.057866 0.00391867 0)
(-0.058485 0.00330419 0)
(-0.0589971 0.0026763 0)
(-0.0594001 0.00203698 0)
(-0.0596925 0.00138825 0)
(-0.0598728 0.000732205 0)
(-0.0599401 7.09918e-05 0)
(-0.0598937 -0.000593183 0)
(-0.0597334 -0.00125806 0)
(-0.0594592 -0.00192131 0)
(-0.0590718 -0.00258058 0)