/*--------------------------------*- C++ -*----------------------------------*\
| =========                 |                                                 |
| \\      /  F ield         | OpenFOAM: The Open Source CFD Toolbox           |
|  \\    /   O peration     | Version:  2312                                  |
|   \\  /    A nd           | Website:  www.openfoam.com                      |
|    \\/     M anipulation  |                                                 |
\*---------------------------------------------------------------------------*/
FoamFile
{
    version     2.0;
    format      ascii;
    arch        "LSB;label=32;scalar=64";
    class       volScalarField;
    location    "50";
    object      p;
}
// * * * * * * * * * * * * * * * * * * * * * * * * * * * * * * * * * * * * * //

dimensions      [0 2 -2 0 0 0 0];

internalField   nonuniform List<scalar> 
2500
(
8.80618e-07
-3.03914e-05
-0.000143863
-0.000317036
-0.000523514
-0.000746677
-0.000974229
-0.00119924
-0.00141722
-0.00162518
-0.0018206
-0.00200068
-0.00216196
-0.00230015
-0.00241025
-0.00248672
-0.00252384
-0.00251609
-0.00245859
-0.00234762
-0.00218106
-0.0019589
-0.00168362
-0.00136054
-0.000997988
-0.000607244
-0.000202504
0.000199785
0.00058153
0.000923937
0.00120863
0.00141886
0.00154074
0.00156437
0.0014847
0.00130212
0.00102263
0.000657568
0.000222894
-0.000261834
-0.000774036
-0.00129039
-0.00178733
-0.00224208
-0.00263361
-0.00294336
-0.00315684
-0.00326682
-0.00327584
-0.0031969
3.15698e-05
-1.19335e-06
-9.65458e-05
-0.000238662
-0.000407204
-0.000592215
-0.00078454
-0.000977986
-0.00116836
-0.00135253
-0.00152776
-0.00169115
-0.00183934
-0.00196845
-0.002074
-0.00215119
-0.00219503
-0.00220073
-0.00216405
-0.00208168
-0.0019517
-0.00177395
-0.00155043
-0.0012856
-0.000986622
-0.000663138
-0.000327253
6.6401e-06
0.00032281
0.000604894
0.000836884
0.00100422
0.0010949
0.00110044
0.00101671
0.000844409
0.000589157
0.00026126
-0.000124935
-0.000552002
-0.00100067
-0.00145026
-0.00188093
-0.00227371
-0.00261224
-0.00288193
-0.00307274
-0.00318004
-0.00319855
-0.00311866
0.000148788
9.16573e-05
-7.03947e-06
-0.000138303
-0.000290738
-0.000455986
-0.000627691
-0.000801434
-0.000974072
-0.0011431
-0.00130614
-0.00146059
-0.00160337
-0.00173086
-0.00183892
-0.00192302
-0.00197844
-0.00200057
-0.00198521
-0.00192894
-0.00182953
-0.00168635
-0.00150073
-0.00127629
-0.00101916
-0.000737717
-0.00044332
-0.000149047
0.000130475
0.000379877
0.00058403
0.000729119
0.000803713
0.000799756
0.000713347
0.000545221
0.000300858
-9.80164e-06
-0.000373029
-0.00077226
-0.00118924
-0.00160531
-0.00200225
-0.00236331
-0.00267384
-0.00292223
-0.00310005
-0.00320297
-0.00321947
-0.00312572
0.000333358
0.000232548
0.000115869
-1.81398e-05
-0.000165725
-0.000321036
-0.000480275
-0.000641157
-0.000802056
-0.000961526
-0.00111794
-0.0012692
-0.00141259
-0.00154476
-0.00166171
-0.00175898
-0.00183177
-0.00187529
-0.00188497
-0.00185689
-0.00178817
-0.00167737
-0.00152494
-0.00133359
-0.00110851
-0.000857287
-0.000590517
-0.000320682
-6.20193e-05
0.000170302
0.000361184
0.000496694
0.000565191
0.000558368
0.000472075
0.000306843
6.80005e-05
-0.00023462
-0.000587401
-0.000973964
-0.00137632
-0.00177612
-0.00215759
-0.00250289
-0.0028003
-0.00303903
-0.00321151
-0.00331326
-0.00332964
-0.00323065
0.000558513
0.000400884
0.000258134
0.000114013
-3.53148e-05
-0.000186675
-0.000338896
-0.000492022
-0.00064619
-0.000801236
-0.000956446
-0.00111036
-0.00126066
-0.00140421
-0.00153704
-0.00165456
-0.00175169
-0.00182311
-0.0018636
-0.00186842
-0.00183371
-0.00175699
-0.00163764
-0.00147729
-0.00128023
-0.00105331
-0.000806494
-0.000551999
-0.000304063
-7.81104e-05
0.000110261
0.000246442
0.000318015
0.000315889
0.000235213
7.59728e-05
-0.00015685
-0.000453568
-0.000800537
-0.00118127
-0.00157773
-0.00197179
-0.00234673
-0.00268736
-0.00298149
-0.00321934
-0.00339403
-0.00350107
-0.00352552
-0.00343722
0.000801531
0.000579655
0.000404826
0.000245265
8.8931e-05
-6.37591e-05
-0.000214325
-0.000365264
-0.000518582
-0.000675494
-0.000836275
-0.00100012
-0.00116511
-0.00132823
-0.00148542
-0.00163176
-0.0017616
-0.00186888
-0.00194739
-0.00199125
-0.00199535
-0.0019559
-0.00187098
-0.00174103
-0.00156929
-0.00136198
-0.00112846
-0.0008809
-0.00063379
-0.000403168
-0.000205562
-5.67636e-05
2.94793e-05
4.27121e-05
-2.31748e-05
-0.000169239
-0.00039123
-0.000679848
-0.0010215
-0.00139948
-0.0017954
-0.00219077
-0.00256839
-0.00291332
-0.00321349
-0.00345948
-0.00364474
-0.00376479
-0.00380614
-0.00374234
0.00103986
0.000749867
0.000539481
0.000360951
0.000193629
3.50685e-05
-0.000119016
-0.000273622
-0.000432655
-0.000598717
-0.000773062
-0.000955519
-0.00114448
-0.00133696
-0.00152866
-0.00171412
-0.00188691
-0.0020399
-0.00216563
-0.00225676
-0.00230662
-0.00230985
-0.00226298
-0.00216505
-0.00201806
-0.00182753
-0.00160218
-0.00135414
-0.0010983
-0.000851551
-0.000631711
-0.000456213
-0.000340708
-0.000297665
-0.000335156
-0.00045597
-0.000657211
-0.000930446
-0.00126244
-0.00163636
-0.00203335
-0.00243419
-0.00282091
-0.00317792
-0.00349266
-0.00375559
-0.00396005
-0.00410121
-0.00416784
-0.00413928
0.00125184
0.000892002
0.000644443
0.000444871
0.000263669
9.53463e-05
-6.72282e-05
-0.00023157
-0.000403457
-0.000586835
-0.000783876
-0.000994963
-0.00121872
-0.00145205
-0.00169026
-0.00192716
-0.00215529
-0.0023662
-0.00255087
-0.00270021
-0.00280567
-0.00286
-0.00285785
-0.00279656
-0.00267665
-0.00250259
-0.00228231
-0.00202778
-0.00175426
-0.0014796
-0.00122315
-0.00100444
-0.000841616
-0.000749908
-0.000740217
-0.000817982
-0.000982552
-0.00122715
-0.00153946
-0.00190288
-0.0022981
-0.002705
-0.00310435
-0.00347928
-0.00381606
-0.00410422
-0.00433626
-0.00450662
-0.00460638
-0.00462148
0.00141552
0.000986063
0.000701081
0.000479402
0.00028212
0.000100496
-7.55363e-05
-0.000256008
-0.00044852
-0.000658284
-0.000888306
-0.00113943
-0.0014104
-0.00169789
-0.00199665
-0.00229956
-0.00259793
-0.00288172
-0.00314005
-0.00336177
-0.00353612
-0.00365354
-0.00370644
-0.00369001
-0.00360289
-0.00344801
-0.00323219
-0.00296691
-0.00266758
-0.00235298
-0.00204415
-0.00176308
-0.00153105
-0.00136689
-0.00128539
-0.00129579
-0.00140091
-0.00159673
-0.0018728
-0.00221336
-0.00259892
-0.00300833
-0.00342074
-0.00381727
-0.00418218
-0.00450316
-0.004771
-0.00497852
-0.00511855
-0.00518434
0.00150892
0.00101173
0.000690102
0.000445903
0.000230721
3.23537e-05
-0.000162279
-0.000365707
-0.000587288
-0.000833425
-0.00110787
-0.00141184
-0.00174408
-0.00210095
-0.00247646
-0.00286244
-0.0032487
-0.0036234
-0.00397353
-0.00428551
-0.00454598
-0.00474264
-0.00486517
-0.00490606
-0.00486148
-0.00473218
-0.00452336
-0.00424544
-0.00391363
-0.00354735
-0.00316939
-0.00280445
-0.00247754
-0.00221205
-0.00202782
-0.00193937
-0.00195449
-0.00207348
-0.00228909
-0.00258739
-0.00294932
-0.00335276
-0.00377486
-0.00419402
-0.00459146
-0.00495191
-0.00526331
-0.00551574
-0.00570319
-0.00582601
0.00151022
0.000948701
0.000591992
0.000325254
9.04911e-05
-0.000128153
-0.000346828
-0.000580531
-0.000840321
-0.00113372
-0.00146515
-0.00183612
-0.00224534
-0.0026887
-0.00315942
-0.00364806
-0.00414281
-0.00462977
-0.00509348
-0.00551763
-0.00588581
-0.00618248
-0.00639396
-0.00650941
-0.00652181
-0.00642895
-0.00623362
-0.00594451
-0.00557593
-0.00514758
-0.00468371
-0.00421189
-0.00376134
-0.0033609
-0.00303679
-0.00281045
-0.00269657
-0.00270171
-0.00282368
-0.00305191
-0.00336875
-0.00375154
-0.00417515
-0.00461451
-0.00504663
-0.00545194
-0.00581406
-0.00611901
-0.00636103
-0.00654723
0.00139815
0.000777117
0.000387548
9.84681e-05
-0.000157585
-0.000400259
-0.000648793
-0.00092061
-0.00122842
-0.00158079
-0.00198281
-0.00243623
-0.00293963
-0.00348844
-0.00407495
-0.00468839
-0.00531511
-0.00593896
-0.00654176
-0.00710407
-0.00760597
-0.00802814
-0.00835288
-0.00856527
-0.00865423
-0.00861374
-0.00844316
-0.00814861
-0.00774267
-0.00724456
-0.00667955
-0.00607789
-0.00547328
-0.00490073
-0.00439415
-0.00398367
-0.00369307
-0.00353762
-0.00352263
-0.00364305
-0.00388425
-0.00422389
-0.00463464
-0.00508719
-0.0055531
-0.00600683
-0.006426
-0.00679084
-0.00709479
-0.00735146
0.00115254
0.000478201
5.85301e-05
-0.000252602
-0.000531786
-0.000802523
-0.00108713
-0.00140539
-0.0017716
-0.00219541
-0.00268248
-0.00323484
-0.00385096
-0.00452575
-0.00525054
-0.00601312
-0.0067979
-0.00758624
-0.00835697
-0.00908712
-0.00975284
-0.0103304
-0.0107974
-0.0111341
-0.0113244
-0.0113575
-0.0112283
-0.0109394
-0.0105004
-0.00992932
-0.00925147
-0.00849932
-0.00771088
-0.00692775
-0.00619253
-0.00554578
-0.00502273
-0.00465019
-0.00444403
-0.00440765
-0.00453186
-0.00479624
-0.0051718
-0.00562454
-0.00611918
-0.00662239
-0.00710367
-0.00753544
-0.00790898
-0.00824437
0.000755005
3.49182e-05
-0.00041163
-0.000744497
-0.00104882
-0.00135193
-0.00167916
-0.00205257
-0.00248803
-0.00299621
-0.00358343
-0.00425199
-0.00500029
-0.00582273
-0.00670967
-0.00764739
-0.00861823
-0.00960087
-0.0105709
-0.0115014
-0.0123642
-0.0131304
-0.0137726
-0.014265
-0.0145859
-0.0147186
-0.0146533
-0.0143868
-0.0139254
-0.0132842
-0.0124876
-0.0115694
-0.0105712
-0.00954095
-0.00853056
-0.00759231
-0.00677511
-0.00612038
-0.00565814
-0.005404
-0.00535767
-0.00550322
-0.00581141
-0.00624354
-0.00675634
-0.00730662
-0.00785326
-0.00835839
-0.00880958
-0.00923331
0.000189772
-0.000567284
-0.00103707
-0.00139134
-0.00172295
-0.00206295
-0.00243957
-0.00287705
-0.00339279
-0.00399849
-0.00470117
-0.00550349
-0.00640381
-0.00739605
-0.00846959
-0.00960918
-0.0107949
-0.0120027
-0.0132045
-0.0143693
-0.0154638
-0.016454
-0.0173061
-0.0179884
-0.0184726
-0.0187355
-0.0187605
-0.0185392
-0.0180724
-0.0173713
-0.0164582
-0.0153665
-0.0141401
-0.0128325
-0.0115046
-0.0102208
-0.00904566
-0.00803789
-0.00724564
-0.0067013
-0.00641801
-0.00638825
-0.00658512
-0.00696618
-0.0074794
-0.00806963
-0.00868231
-0.00926626
-0.00980344
-0.0103267
-0.000555613
-0.00133975
-0.00182877
-0.00220408
-0.00256516
-0.00294663
-0.00337942
-0.00388983
-0.00449671
-0.00521287
-0.00604606
-0.00699935
-0.00807113
-0.0092549
-0.0105391
-0.0119067
-0.0133357
-0.0147988
-0.0162643
-0.0176964
-0.0190568
-0.0203054
-0.0214023
-0.0223088
-0.0229898
-0.0234149
-0.0235604
-0.0234116
-0.022963
-0.0222207
-0.0212029
-0.0199409
-0.0184792
-0.0168751
-0.0151968
-0.0135207
-0.0119272
-0.0104948
-0.00929342
-0.00837718
-0.00777837
-0.0075033
-0.00753168
-0.00781964
-0.00830653
-0.00892348
-0.00959936
-0.0102661
-0.0108976
-0.011533
-0.00148955
-0.00228995
-0.00279385
-0.00318971
-0.00358238
-0.00400975
-0.00450523
-0.00509701
-0.00580537
-0.00664417
-0.00762198
-0.00874235
-0.0100037
-0.0113992
-0.0129162
-0.0145361
-0.0162344
-0.0179804
-0.0197384
-0.021468
-0.023125
-0.0246635
-0.0260367
-0.0271992
-0.0281085
-0.0287271
-0.0290237
-0.0289779
-0.0285761
-0.0278184
-0.0267176
-0.0253012
-0.0236116
-0.0217072
-0.0196611
-0.0175596
-0.0154983
-0.013576
-0.0118872
-0.0105128
-0.00951047
-0.00890748
-0.00869635
-0.00883615
-0.00925925
-0.00988198
-0.0106135
-0.0113648
-0.0120987
-0.0128603
-0.00261578
-0.00342091
-0.00393501
-0.00435074
-0.00477685
-0.00525414
-0.00581823
-0.00649901
-0.00731808
-0.00829037
-0.00942527
-0.0107268
-0.0121936
-0.0138183
-0.0155872
-0.0174799
-0.0194691
-0.021521
-0.0235953
-0.0256466
-0.0276251
-0.0294784
-0.0311534
-0.0325976
-0.0337618
-0.0346015
-0.0350791
-0.0351649
-0.0348407
-0.034099
-0.0329462
-0.0314036
-0.0295094
-0.0273196
-0.0249087
-0.0223692
-0.0198091
-0.0173464
-0.0151012
-0.0131848
-0.011687
-0.0106639
-0.0101294
-0.0100523
-0.0103619
-0.0109602
-0.0117339
-0.0125683
-0.0134118
-0.0143149
-0.00393296
-0.00473082
-0.00525016
-0.00568475
-0.00614565
-0.00667617
-0.00731382
-0.00808994
-0.00902733
-0.0101419
-0.0114439
-0.0129379
-0.0146224
-0.0164897
-0.0185249
-0.0207055
-0.0230016
-0.0253755
-0.0277825
-0.0301718
-0.0324879
-0.0346724
-0.0366655
-0.0384085
-0.0398458
-0.0409268
-0.0416077
-0.0418522
-0.0416358
-0.0409441
-0.0397765
-0.0381468
-0.0360864
-0.0336456
-0.0308959
-0.0279314
-0.0248673
-0.0218372
-0.0189855
-0.0164554
-0.0143739
-0.0128346
-0.0118831
-0.0115075
-0.011641
-0.0121739
-0.012969
-0.0138811
-0.01484
-0.0159001
-0.00543441
-0.00621284
-0.00673218
-0.00718414
-0.00768047
-0.0082665
-0.00898128
-0.00985732
-0.0109185
-0.0121815
-0.0136574
-0.0153512
-0.0172613
-0.0193795
-0.0216894
-0.0241665
-0.0267777
-0.0294814
-0.0322281
-0.0349619
-0.0376215
-0.0401424
-0.0424592
-0.0445072
-0.0462256
-0.0475585
-0.0484569
-0.0488798
-0.0487969
-0.048188
-0.0470451
-0.0453743
-0.0431982
-0.0405583
-0.037519
-0.0341696
-0.0306267
-0.0270332
-0.0235528
-0.0203594
-0.0176199
-0.0154731
-0.0140067
-0.0132409
-0.0131234
-0.0135386
-0.0143256
-0.015305
-0.0163827
-0.0176157
-0.00710814
-0.00785512
-0.00836898
-0.00883626
-0.00936768
-0.0100102
-0.0108039
-0.0117822
-0.0129697
-0.0143841
-0.0160368
-0.0179331
-0.0200714
-0.0224426
-0.0250288
-0.0278031
-0.030729
-0.0337608
-0.0368444
-0.0399184
-0.0429159
-0.0457671
-0.048401
-0.0507484
-0.0527441
-0.0543283
-0.0554485
-0.0560596
-0.056129
-0.0556303
-0.0545497
-0.0528856
-0.0506511
-0.0478769
-0.0446158
-0.0409474
-0.0369821
-0.0328637
-0.0287678
-0.0248934
-0.0214465
-0.0186151
-0.0165402
-0.0152879
-0.0148341
-0.0150678
-0.015808
-0.016838
-0.018035
-0.0194561
-0.00893709
-0.00964108
-0.0101438
-0.0106236
-0.0111886
-0.0118868
-0.0127591
-0.0138393
-0.0151527
-0.0167174
-0.0185453
-0.0206418
-0.0230049
-0.0256246
-0.0284811
-0.0315449
-0.0347762
-0.0381249
-0.041532
-0.0449311
-0.0482499
-0.0514137
-0.0543469
-0.0569767
-0.0592344
-0.0610582
-0.0623932
-0.0631921
-0.0634235
-0.0630546
-0.0620675
-0.0604545
-0.0582193
-0.0553809
-0.0519783
-0.0480762
-0.0437717
-0.0392008
-0.0345407
-0.0300062
-0.0258365
-0.0222695
-0.0195065
-0.0176738
-0.0167927
-0.0167712
-0.0174161
-0.0184731
-0.0197862
-0.0214092
-0.0108997
-0.01155
-0.0120358
-0.0125246
-0.0131203
-0.0138716
-0.0148196
-0.0159984
-0.0174335
-0.0191433
-0.0211399
-0.0234286
-0.026007
-0.0288635
-0.0319768
-0.0353144
-0.0388328
-0.0424779
-0.0461858
-0.0498851
-0.0534988
-0.0569477
-0.0601526
-0.0630378
-0.0655328
-0.0675746
-0.069109
-0.0700916
-0.0704787
-0.0702477
-0.0693759
-0.0678501
-0.0656661
-0.0628319
-0.0593712
-0.055331
-0.0507896
-0.0458663
-0.0407287
-0.0355954
-0.0307281
-0.0264092
-0.0229033
-0.0204082
-0.019009
-0.0186517
-0.0191439
-0.020197
-0.0216181
-0.0234549
-0.0129706
-0.0135575
-0.0140207
-0.014514
-0.0151361
-0.0159357
-0.0169539
-0.0182247
-0.0197734
-0.0216187
-0.0237725
-0.0262399
-0.0290176
-0.0320929
-0.0354421
-0.0390301
-0.0428097
-0.0467225
-0.0507004
-0.0546671
-0.0585415
-0.0622406
-0.0656823
-0.068789
-0.0714894
-0.0737207
-0.0754293
-0.0765715
-0.0771097
-0.077017
-0.0762718
-0.0748583
-0.0727669
-0.0699959
-0.066555
-0.0624724
-0.0578041
-0.0526457
-0.0471448
-0.0415103
-0.0360122
-0.030966
-0.0266958
-0.023478
-0.0214781
-0.0207022
-0.0209769
-0.0219877
-0.0235041
-0.0255637
-0.0151215
-0.015637
-0.0160719
-0.0165645
-0.017207
-0.0180478
-0.0191278
-0.0204805
-0.0221309
-0.0240975
-0.0263921
-0.0290191
-0.0319745
-0.035244
-0.038802
-0.0426104
-0.0466187
-0.0507645
-0.0549754
-0.0591713
-0.0632671
-0.0671768
-0.0708162
-0.0741065
-0.0769766
-0.0793647
-0.0812192
-0.0824983
-0.0831688
-0.083205
-0.0825869
-0.0812987
-0.0793275
-0.0766648
-0.0733085
-0.0692694
-0.06458
-0.0593084
-0.0535738
-0.0475625
-0.0415369
-0.0358296
-0.0308131
-0.0268422
-0.0241757
-0.0229019
-0.0228899
-0.0238135
-0.0254069
-0.0276952
-0.0173225
-0.0177603
-0.0181614
-0.0186473
-0.0193026
-0.0201754
-0.0213058
-0.0227267
-0.0244628
-0.0265322
-0.0289462
-0.0317088
-0.034815
-0.0382491
-0.0419834
-0.0459772
-0.0501769
-0.0545165
-0.05892
-0.0633036
-0.0675792
-0.0716583
-0.0754551
-0.0788905
-0.0818938
-0.0844049
-0.0863748
-0.0877649
-0.0885455
-0.0886949
-0.0881958
-0.087034
-0.0851966
-0.0826708
-0.0794463
-0.0755191
-0.0709003
-0.0656292
-0.0597918
-0.0535417
-0.047118
-0.0408517
-0.035147
-0.0304282
-0.0270534
-0.0252128
-0.0248443
-0.0256305
-0.0272775
-0.0297965
-0.019543
-0.0198988
-0.0202611
-0.0207336
-0.0213927
-0.0222857
-0.0234523
-0.0249243
-0.0267262
-0.0288755
-0.0313834
-0.0342531
-0.0374788
-0.0410435
-0.0449177
-0.0490585
-0.0534094
-0.0579015
-0.0624556
-0.0669849
-0.0713988
-0.0756069
-0.0795225
-0.0830661
-0.0861682
-0.0887704
-0.0908264
-0.092301
-0.0931687
-0.0934118
-0.0930172
-0.091974
-0.0902709
-0.0878944
-0.0848293
-0.081061
-0.0765826
-0.0714071
-0.0655861
-0.0592339
-0.0525536
-0.045856
-0.0395561
-0.0341316
-0.0300361
-0.0275765
-0.0267857
-0.0273809
-0.0290534
-0.0318015
-0.0217532
-0.0220249
-0.0223441
-0.0227958
-0.0234482
-0.0243476
-0.025533
-0.0270357
-0.0288797
-0.0310824
-0.0336545
-0.0365991
-0.0399095
-0.0435678
-0.0475431
-0.0517905
-0.0562513
-0.0608542
-0.0655175
-0.0701519
-0.0746651
-0.078965
-0.0829642
-0.0865834
-0.0897538
-0.092419
-0.0945351
-0.0960701
-0.0970026
-0.097319
-0.0970109
-0.0960717
-0.0944934
-0.0922643
-0.0893678
-0.085783
-0.08149
-0.0764796
-0.0707714
-0.0644388
-0.0576406
-0.0506512
-0.0438742
-0.0378188
-0.0330219
-0.0299124
-0.0286417
-0.0289915
-0.0306575
-0.0336291
-0.0239247
-0.0241129
-0.0243853
-0.0248087
-0.0254425
-0.0263323
-0.0275165
-0.0290261
-0.030885
-0.0331109
-0.0357145
-0.0386987
-0.0420566
-0.0457696
-0.0498058
-0.0541191
-0.058649
-0.0633225
-0.0680558
-0.0727581
-0.0773352
-0.0816942
-0.0857469
-0.0894143
-0.0926281
-0.0953333
-0.0974881
-0.0990633
-0.100041
-0.100412
-0.100171
-0.0993173
-0.0978473
-0.0957527
-0.0930183
-0.0896211
-0.0855333
-0.0807292
-0.0752015
-0.0689847
-0.0621902
-0.0550447
-0.0479205
-0.0413335
-0.0358834
-0.0321166
-0.0303208
-0.0303721
-0.0319968
-0.0351829
-0.0260322
-0.0261402
-0.0263631
-0.0267504
-0.0273528
-0.0282148
-0.0293749
-0.0308644
-0.0327078
-0.0349236
-0.037523
-0.0405094
-0.043876
-0.047604
-0.0516613
-0.0560006
-0.0605608
-0.0652674
-0.0700352
-0.0747722
-0.0793831
-0.0837738
-0.0878558
-0.0915497
-0.0947878
-0.0975158
-0.0996933
-0.101293
-0.1023
-0.102708
-0.102517
-0.10173
-0.100348
-0.098367
-0.0957764
-0.0925541
-0.0886687
-0.0840845
-0.0787733
-0.0727366
-0.0660398
-0.0588563
-0.0515116
-0.0445044
-0.0384717
-0.0340633
-0.0317112
-0.0314148
-0.0329611
-0.0363504
-0.0280549
-0.0280873
-0.02826
-0.0286032
-0.0291603
-0.0299742
-0.0310848
-0.0325242
-0.0343186
-0.0364881
-0.0390455
-0.0419951
-0.0453309
-0.0490347
-0.0530742
-0.0574021
-0.0619567
-0.0666626
-0.071434
-0.0761777
-0.0807974
-0.0851983
-0.0892913
-0.0929963
-0.0962455
-0.0989848
-0.101175
-0.102789
-0.103814
-0.104246
-0.104089
-0.103349
-0.102032
-0.100141
-0.0976681
-0.094595
-0.0908911
-0.0865156
-0.0814267
-0.0756
-0.0690604
-0.0619279
-0.0544723
-0.0471546
-0.0406222
-0.035606
-0.0326808
-0.0319926
-0.0334226
-0.0370014
-0.0299745
-0.0299403
-0.0300629
-0.0303551
-0.0308517
-0.0315947
-0.0326278
-0.033984
-0.035693
-0.0377777
-0.0402534
-0.0431264
-0.0463923
-0.0500337
-0.0540189
-0.058301
-0.0628179
-0.0674941
-0.0722431
-0.0769709
-0.0815803
-0.0859758
-0.0900671
-0.0937734
-0.0970261
-0.0997706
-0.101967
-0.103589
-0.104625
-0.105073
-0.104937
-0.104228
-0.102956
-0.101128
-0.0987413
-0.0957832
-0.0922258
-0.0880278
-0.0831399
-0.0775196
-0.0711591
-0.0641304
-0.0566442
-0.0491099
-0.0421603
-0.036581
-0.0330778
-0.0319587
-0.0332339
-0.0369879
-0.0317794
-0.0316906
-0.0317641
-0.0319973
-0.0324172
-0.0330671
-0.0339909
-0.0352276
-0.0368118
-0.0387708
-0.041124
-0.0438806
-0.0470383
-0.0505813
-0.0544789
-0.0586847
-0.0631367
-0.0677592
-0.0724652
-0.07716
-0.0817457
-0.0861254
-0.0902078
-0.0939108
-0.0971644
-0.0999128
-0.102115
-0.103745
-0.104789
-0.105247
-0.105122
-0.10443
-0.103183
-0.101391
-0.0990583
-0.0961757
-0.0927201
-0.0886527
-0.0839217
-0.078474
-0.0722778
-0.0653648
-0.0578904
-0.0502052
-0.0429074
-0.0368103
-0.032731
-0.0311457
-0.0322265
-0.0361413
-0.0334628
-0.0333347
-0.0333622
-0.0335293
-0.0338552
-0.0343845
-0.035165
-0.0362431
-0.0376604
-0.0394513
-0.0416404
-0.0442413
-0.0472544
-0.050666
-0.0544466
-0.0585503
-0.0629152
-0.0674655
-0.0721136
-0.0767641
-0.0813178
-0.0856768
-0.089748
-0.0934477
-0.096704
-0.099459
-0.10167
-0.103309
-0.104361
-0.104824
-0.104708
-0.104023
-0.102783
-0.101004
-0.0986911
-0.0958415
-0.0924365
-0.0884411
-0.0838048
-0.0784694
-0.0723881
-0.0655616
-0.0580976
-0.0502882
-0.0426846
-0.0361037
-0.0314495
-0.0293632
-0.0302082
-0.0342705
-0.0350236
-0.0348755
-0.0348619
-0.0349551
-0.0351679
-0.0355465
-0.036146
-0.0370226
-0.0382286
-0.0398073
-0.0417908
-0.0441979
-0.0470328
-0.0502839
-0.0539227
-0.0579038
-0.0621653
-0.0666307
-0.0712118
-0.075812
-0.0803309
-0.0846688
-0.088731
-0.0924314
-0.0956957
-0.0984637
-0.10069
-0.102344
-0.103409
-0.103882
-0.103768
-0.10308
-0.101833
-0.100043
-0.0977172
-0.0948566
-0.0914466
-0.0874561
-0.0828378
-0.0775324
-0.0714849
-0.0646756
-0.0571744
-0.049221
-0.0413153
-0.0342598
-0.0290219
-0.0263954
-0.0269587
-0.0311568
-0.036467
-0.0363227
-0.0362746
-0.0362853
-0.0363627
-0.0365565
-0.0369328
-0.0375616
-0.038509
-0.0398306
-0.0415676
-0.0437454
-0.0463721
-0.0494383
-0.0529162
-0.0567603
-0.0609081
-0.0652821
-0.0697927
-0.0743421
-0.0788281
-0.0831492
-0.0872083
-0.0909168
-0.0941978
-0.0969877
-0.0992381
-0.100915
-0.102
-0.102485
-0.102374
-0.101678
-0.100411
-0.0985874
-0.096217
-0.0933009
-0.0898271
-0.0857676
-0.081079
-0.0757021
-0.0695798
-0.0626801
-0.0550469
-0.0468775
-0.038624
-0.0310658
-0.025213
-0.0219958
-0.0222233
-0.0265478
-0.0378047
-0.037694
-0.0376195
-0.0375365
-0.0374514
-0.0374209
-0.0375262
-0.0378566
-0.0384962
-0.0395156
-0.0409673
-0.0428838
-0.0452773
-0.04814
-0.0514443
-0.0551436
-0.059174
-0.0634562
-0.0678989
-0.0724021
-0.0768618
-0.0811742
-0.0852395
-0.0889666
-0.0922752
-0.0950984
-0.097384
-0.0990945
-0.100207
-0.10071
-0.100604
-0.0998953
-0.0985966
-0.0967197
-0.0942726
-0.0912555
-0.0876566
-0.0834491
-0.0785904
-0.0730245
-0.0666933
-0.0595598
-0.0516526
-0.0431397
-0.0344346
-0.0262936
-0.0197588
-0.0158788
-0.0157031
-0.0201468
-0.039056
-0.0390173
-0.0389251
-0.0387326
-0.0384502
-0.0381474
-0.0379275
-0.0379046
-0.0381856
-0.038859
-0.0399898
-0.0416181
-0.0437597
-0.0464075
-0.0495327
-0.0530866
-0.0570027
-0.0611992
-0.0655819
-0.0700487
-0.0744929
-0.0788081
-0.082892
-0.0866503
-0.0899995
-0.0928688
-0.095202
-0.0969571
-0.0981061
-0.0986334
-0.0985336
-0.0978113
-0.096471
-0.0945209
-0.0919653
-0.0888006
-0.0850124
-0.0805718
-0.0754352
-0.069547
-0.0628495
-0.0553048
-0.0469349
-0.0378922
-0.0285652
-0.0196959
-0.0123579
-0.00770838
-0.00704097
-0.0115964
-0.0402444
-0.0403376
-0.0402319
-0.0399048
-0.0393785
-0.0387443
-0.0381366
-0.0377014
-0.0375725
-0.037859
-0.0386388
-0.039959
-0.041838
-0.0442676
-0.0472163
-0.0506319
-0.054444
-0.0585669
-0.0629032
-0.0673476
-0.0717907
-0.0761233
-0.0802403
-0.0840442
-0.087448
-0.090377
-0.0927706
-0.0945818
-0.0957774
-0.0963361
-0.0962466
-0.0955057
-0.094113
-0.0920696
-0.0893728
-0.0860126
-0.0819679
-0.077204
-0.0716726
-0.0653148
-0.0580717
-0.0499057
-0.040838
-0.0310167
-0.0208234
-0.0109994
-0.00266179
0.00292025
0.00420109
-0.000451787
-0.041424
-0.0417105
-0.0415957
-0.0410931
-0.0402603
-0.0392192
-0.038151
-0.0372404
-0.036652
-0.0365158
-0.0369224
-0.0379241
-0.0395393
-0.0417569
-0.0445407
-0.0478329
-0.0515579
-0.0556252
-0.0599333
-0.0643733
-0.0688325
-0.0731991
-0.0773649
-0.0812294
-0.0847019
-0.0877039
-0.0901699
-0.0920478
-0.0932984
-0.0938939
-0.0938158
-0.0930527
-0.0915962
-0.0894381
-0.0865664
-0.0829607
-0.0785894
-0.0734074
-0.0673563
-0.0603686
-0.0523801
-0.0433515
-0.0333081
-0.0223926
-0.011003
9.98715e-05
0.00973728
0.0165032
0.0185738
0.0138644
-0.0426637
-0.0432327
-0.0430983
-0.0423511
-0.0411179
-0.0395792
-0.0379668
-0.0365136
-0.03542
-0.034834
-0.0348558
-0.0355399
-0.0369015
-0.0389237
-0.041563
-0.0447544
-0.0484156
-0.0524502
-0.056752
-0.0612079
-0.0657023
-0.07012
-0.0743503
-0.0782894
-0.0818433
-0.0849295
-0.0874777
-0.0894303
-0.0907417
-0.0913768
-0.0913088
-0.0905171
-0.0889836
-0.0866881
-0.0836062
-0.0797036
-0.0749337
-0.0692354
-0.0625338
-0.054746
-0.045795
-0.0356337
-0.0242867
-0.0119137
0.0011054
0.0139358
0.0253146
0.0336534
0.036785
0.0321359
-0.0440895
-0.0450535
-0.044858
-0.0437505
-0.0419853
-0.0398262
-0.0375753
-0.0355153
-0.0338769
-0.0328257
-0.0324649
-0.0328458
-0.0339763
-0.03583
-0.0383538
-0.0414736
-0.045099
-0.0491271
-0.0534463
-0.0579394
-0.0624873
-0.0669722
-0.0712804
-0.0753055
-0.0789502
-0.0821281
-0.0847641
-0.0867951
-0.0881687
-0.0888421
-0.0887796
-0.08795
-0.0863232
-0.0838658
-0.0805374
-0.0762864
-0.0710462
-0.0647335
-0.0572496
-0.0484871
-0.0383461
-0.0267614
-0.0137471
0.000535604
0.0156747
0.0308473
0.0446101
0.0551242
0.0597629
0.0554755
-0.0459358
-0.0474172
-0.0470527
-0.0453903
-0.0429037
-0.0399712
-0.0369738
-0.0342442
-0.0320343
-0.0305174
-0.0297917
-0.0298981
-0.0308318
-0.0325533
-0.0349973
-0.0380789
-0.0416989
-0.0457472
-0.0501068
-0.0546563
-0.0592734
-0.0638375
-0.0682329
-0.0723503
-0.0760897
-0.0793608
-0.0820844
-0.0841916
-0.0856233
-0.0863287
-0.0862624
-0.0853821
-0.083644
-0.0809993
-0.0773895
-0.0727414
-0.0669639
-0.059945
-0.0515539
-0.0416486
-0.0300926
-0.0167866
-0.00171717
0.0149714
0.0328646
0.0511071
0.0681869
0.0818267
0.0887553
0.0855288
-0.0486586
-0.0507366
-0.0499553
-0.0474138
-0.0439353
-0.0400372
-0.0361752
-0.0327177
-0.0299244
-0.0279574
-0.0268999
-0.0267733
-0.0275541
-0.0291858
-0.0315887
-0.0346663
-0.0383098
-0.0424021
-0.0468208
-0.0514406
-0.0561365
-0.0607858
-0.0652706
-0.0694797
-0.0733104
-0.0766695
-0.0794735
-0.0816483
-0.0831283
-0.0838544
-0.0837715
-0.0828252
-0.0809575
-0.0781023
-0.0741807
-0.0690952
-0.0627252
-0.0549247
-0.0455225
-0.0343302
-0.0211589
-0.00585319
0.0116565
0.0312765
0.0526315
0.0748693
0.096494
0.114814
0.125469
0.124762
-0.0531811
-0.0557182
-0.0539776
-0.0500248
-0.0451741
-0.0400713
-0.0352159
-0.0309803
-0.0276038
-0.0252178
-0.0238738
-0.023564
-0.0242401
-0.0258255
-0.0282244
-0.0313279
-0.0350182
-0.0391714
-0.0436602
-0.0483565
-0.0531327
-0.0578647
-0.0624332
-0.0667256
-0.0706374
-0.0740725
-0.0769439
-0.0791727
-0.0806871
-0.0814202
-0.0813069
-0.0802805
-0.0782684
-0.0751865
-0.070934
-0.0653872
-0.0583933
-0.0497673
-0.0392909
-0.0267179
-0.0117901
0.00573169
0.0260137
0.0490689
0.0746357
0.101977
0.129618
0.155073
0.172068
0.176627
-0.0614347
-0.0635693
-0.0596885
-0.0534661
-0.0467207
-0.0401188
-0.0341286
-0.0290719
-0.0251266
-0.0223654
-0.0207892
-0.0203508
-0.0209712
-0.0225509
-0.0249775
-0.0281301
-0.0318822
-0.0361045
-0.0406661
-0.0454363
-0.0502865
-0.0550917
-0.059732
-0.0640941
-0.0680721
-0.071568
-0.0744917
-0.0767601
-0.0782958
-0.0790244
-0.0788717
-0.077759
-0.0755992
-0.0722878
-0.0677059
-0.0617027
-0.0540921
-0.0446484
-0.0331023
-0.0191418
-0.00242235
0.0174088
0.0406666
0.0675529
0.0980354
0.13167
0.1674
0.202782
0.230654
0.245464
-0.0775455
-0.0762725
-0.0677662
-0.0579211
-0.0485643
-0.0401018
-0.0328312
-0.0269335
-0.0224638
-0.0193974
-0.0176633
-0.0171631
-0.0177825
-0.0193982
-0.0218816
-0.0251016
-0.0289252
-0.0332191
-0.0378503
-0.0426874
-0.0476014
-0.0524677
-0.0571666
-0.0615847
-0.0656154
-0.0691594
-0.0721243
-0.0744233
-0.0759739
-0.0766952
-0.0765047
-0.0753145
-0.0730261
-0.0695061
-0.0646281
-0.0582148
-0.0500499
-0.0398698
-0.0273553
-0.0121265
0.00625735
0.0282894
0.0544913
0.0853643
0.121293
0.162401
0.208419
0.257514
0.302434
0.338388
-0.110545
-0.0960677
-0.0784706
-0.063018
-0.0500986
-0.0394235
-0.0308438
-0.0242189
-0.0193821
-0.0161645
-0.014404
-0.0139458
-0.0146416
-0.0163477
-0.0189244
-0.0222342
-0.0261415
-0.030512
-0.035213
-0.0401139
-0.0450871
-0.0500092
-0.0547616
-0.0592313
-0.0633119
-0.0669033
-0.069911
-0.0722456
-0.0738202
-0.0745481
-0.0743391
-0.0730956
-0.0707069
-0.0670542
-0.0619626
-0.0552423
-0.046658
-0.035917
-0.0226592
-0.00644635
0.0132525
0.0370764
0.0657911
0.100309
0.14169
0.191112
0.249772
0.317661
0.389258
0.472846
-0.184537
-0.120478
-0.0862232
-0.0635836
-0.0471622
-0.0349366
-0.0258847
-0.0192907
-0.0146789
-0.0117454
-0.0102722
-0.0100806
-0.0110132
-0.0129256
-0.0156808
-0.0191454
-0.0231881
-0.0276787
-0.0324881
-0.0374891
-0.0425568
-0.04757
-0.0524115
-0.0569697
-0.0611383
-0.0648169
-0.06791
-0.0703264
-0.0719768
-0.0727708
-0.0726127
-0.0713891
-0.0690104
-0.0653305
-0.0601718
-0.053334
-0.0445704
-0.033573
-0.0199606
-0.00326101
0.0171133
0.041905
0.0720772
0.108936
0.15434
0.211089
0.283401
0.377378
0.498639
0.679011
-0.370046
-0.140736
-0.0677854
-0.0437994
-0.0295378
-0.0195582
-0.0128817
-0.00842775
-0.00551645
-0.00387539
-0.00338411
-0.00394794
-0.00547176
-0.00785723
-0.0110011
-0.0147946
-0.0191238
-0.0238712
-0.0289169
-0.0341402
-0.0394212
-0.0446419
-0.0496875
-0.0544476
-0.0588167
-0.0626941
-0.0659842
-0.0685945
-0.0704349
-0.071415
-0.0714438
-0.0704285
-0.0682175
-0.0646937
-0.0596957
-0.0530201
-0.0444198
-0.0335899
-0.0201528
-0.00363802
0.016546
0.04116
0.0712199
0.108177
0.154294
0.213631
0.294213
0.414666
0.609755
0.96524
)
;

boundaryField
{
    movingWall
    {
        type            zeroGradient;
    }
    fixedWalls
    {
        type            zeroGradient;
    }
    frontAndBack
    {
        type            empty;
    }
}


// ************************************************************************* //
