/*--------------------------------*- C++ -*----------------------------------*\
| =========                 |                                                 |
| \\      /  F ield         | OpenFOAM: The Open Source CFD Toolbox           |
|  \\    /   O peration     | Version:  2312                                  |
|   \\  /    A nd           | Website:  www.openfoam.com                      |
|    \\/     M anipulation  |                                                 |
\*---------------------------------------------------------------------------*/
FoamFile
{
    version     2.0;
    format      ascii;
    arch        "LSB;label=32;scalar=64";
    class       volScalarField;
    location    "50";
    object      p;
}
// * * * * * * * * * * * * * * * * * * * * * * * * * * * * * * * * * * * * * //

dimensions      [0 2 -2 0 0 0 0];

internalField   nonuniform List<scalar> 
2601
(
9.29175e-07
-2.7696e-05
-0.0001364
-0.000303793
-0.000504728
-0.000723376
-0.000946813
-0.00116856
-0.00138404
-0.00159028
-0.0017849
-0.00196535
-0.00212853
-0.00227058
-0.00238694
-0.00247248
-0.00252182
-0.00252964
-0.0024911
-0.00240224
-0.00226046
-0.00206491
-0.00181695
-0.00152041
-0.00118189
-0.000810861
-0.000419075
-2.13753e-05
0.000365949
0.000725426
0.00103936
0.00129091
0.00146523
0.00155052
0.00153901
0.00142766
0.00121854
0.000918852
0.000540627
9.98369e-05
-0.000384133
-0.000889898
-0.00139526
-0.00187805
-0.00231708
-0.00269275
-0.0029879
-0.00318925
-0.00329063
-0.00329544
-0.00321743
2.90629e-05
-1.01159e-06
-9.25996e-05
-0.000230022
-0.000394602
-0.000575945
-0.00076505
-0.000955842
-0.00114412
-0.00132683
-0.00150134
-0.00166497
-0.00181468
-0.0019469
-0.00205754
-0.00214213
-0.00219596
-0.00221443
-0.00219329
-0.00212909
-0.00201948
-0.00186362
-0.00166254
-0.00141947
-0.00114
-0.000832301
-0.00050647
-0.000175327
0.000146895
0.000444954
0.000703405
0.000907567
0.00104453
0.0011041
0.00107969
0.000968909
0.000773901
0.000501358
0.000162159
-0.000229308
-0.000656037
-0.00109938
-0.00154003
-0.00195922
-0.00233935
-0.00266496
-0.00292286
-0.00310386
-0.00320408
-0.00321895
-0.00314007
0.000141053
8.77145e-05
-6.5199e-06
-0.000133757
-0.000282594
-0.000444638
-0.000613569
-0.00078495
-0.000955612
-0.00112309
-0.00128511
-0.00143927
-0.00158276
-0.00171227
-0.00182401
-0.00191377
-0.00197712
-0.00200967
-0.00200727
-0.00196641
-0.00188457
-0.00176052
-0.00159478
-0.00138983
-0.00115041
-0.000883482
-0.000598608
-0.000307218
-2.25025e-05
0.000241278
0.000469589
0.000648546
0.000765889
0.000811948
0.000780467
0.000669226
0.000480363
0.000220365
-0.000100305
-0.000467892
-0.000866277
-0.00127805
-0.0016855
-0.00207159
-0.0024209
-0.00271989
-0.00295767
-0.00312665
-0.00322307
-0.00323604
-0.00314307
0.00031958
0.000225679
0.000113183
-1.69898e-05
-0.000161159
-0.000313561
-0.000470283
-0.000628902
-0.000787711
-0.000945262
-0.00110001
-0.00125005
-0.00139292
-0.00152558
-0.0016444
-0.00174527
-0.00182375
-0.0018753
-0.00189554
-0.00188055
-0.00182725
-0.00173376
-0.00159981
-0.00142705
-0.00121935
-0.000982877
-0.000726436
-0.000460821
-0.000198741
4.5859e-05
0.000258593
0.000425576
0.000534437
0.000575321
0.000541765
0.000431352
0.000246061
-7.74637e-06
-0.00031971
-0.000676204
-0.00106133
-0.00145804
-0.0018493
-0.00221909
-0.00255312
-0.00283914
-0.00306746
-0.00323124
-0.00332642
-0.00333885
-0.00323969
0.00053846
0.000389844
0.000252572
0.000112587
-3.33522e-05
-0.000181916
-0.000331655
-0.000482362
-0.000634012
-0.000786394
-0.000938859
-0.00109012
-0.00123814
-0.0013801
-0.00151246
-0.00163104
-0.0017312
-0.001808
-0.00185652
-0.00187215
-0.00185098
-0.00179021
-0.00168857
-0.00154675
-0.00136769
-0.00115683
-0.000922253
-0.000674386
-0.000425775
-0.00019044
1.69254e-05
0.000181935
0.000291585
0.000335329
0.000306037
0.000200721
2.09395e-05
-0.000227189
-0.000533386
-0.000883979
-0.00126298
-0.0016533
-0.00203801
-0.00240133
-0.00273023
-0.00301237
-0.00323939
-0.00340492
-0.00350479
-0.00352436
-0.00343432
0.000776744
0.000566265
0.000397945
0.000242844
8.99999e-05
-5.98039e-05
-0.000207653
-0.000355666
-0.000505614
-0.000658622
-0.000815012
-0.000974161
-0.00113444
-0.00129323
-0.00144695
-0.00159121
-0.00172091
-0.0018305
-0.00191424
-0.00196654
-0.00198239
-0.00195781
-0.00189035
-0.00177955
-0.00162736
-0.00143842
-0.00122017
-0.000982838
-0.000738994
-0.000503029
-0.000290307
-0.000116143
5.34555e-06
6.2408e-05
4.67279e-05
-4.57358e-05
-0.000214252
-0.000453243
-0.000752666
-0.00109882
-0.00147546
-0.00186519
-0.00225077
-0.00261633
-0.0029484
-0.00323579
-0.00347001
-0.00364508
-0.00375686
-0.00379198
-0.00372443
0.00101273
0.00073665
0.000533707
0.000359979
0.000196372
4.1007e-05
-0.0001098
-0.00026055
-0.000414839
-0.000575148
-0.000742771
-0.000917735
-0.00109878
-0.00128337
-0.00146779
-0.00164724
-0.00181599
-0.00196761
-0.00209529
-0.00219216
-0.00225185
-0.00226894
-0.00223956
-0.0021619
-0.00203676
-0.00186787
-0.001662
-0.00142915
-0.00118203
-0.000935574
-0.000706091
-0.000510196
-0.000363584
-0.000279754
-0.000268809
-0.000336468
-0.000483418
-0.000705129
-0.000992165
-0.00133099
-0.00170514
-0.00209673
-0.00248786
-0.00286204
-0.00320517
-0.00350592
-0.00375566
-0.00394836
-0.00407967
-0.00413832
-0.00410369
0.00122602
0.000882457
0.000643187
0.000448776
0.000271635
0.000107065
-5.12927e-05
-0.000210344
-0.000375497
-0.000550551
-0.000737727
-0.00093764
-0.00114931
-0.0013702
-0.00159632
-0.00182229
-0.00204153
-0.00224652
-0.00242907
-0.00258083
-0.00269373
-0.00276065
-0.00277599
-0.00273636
-0.00264111
-0.00249288
-0.00229753
-0.00206473
-0.00180726
-0.00154063
-0.00128229
-0.00105046
-0.000862854
-0.000735326
-0.000680471
-0.000706467
-0.000816226
-0.00100702
-0.00127065
-0.00159418
-0.00196114
-0.0023531
-0.00275129
-0.00313812
-0.00349836
-0.00381973
-0.00409291
-0.00431118
-0.00446966
-0.00455926
-0.00456571
0.0013959
0.000984819
0.000708846
0.000492686
0.000299952
0.000122929
-4.75074e-05
-0.000220672
-0.000403747
-0.000601787
-0.000817864
-0.0010531
-0.0013067
-0.00157603
-0.00185665
-0.00214246
-0.00242585
-0.00269795
-0.00294898
-0.00316878
-0.00334732
-0.00347542
-0.00354545
-0.003552
-0.00349269
-0.00336871
-0.00318446
-0.00294917
-0.00267544
-0.00237928
-0.00207928
-0.00179552
-0.0015482
-0.00135614
-0.00123527
-0.00119718
-0.00124807
-0.00138804
-0.00161105
-0.0019055
-0.00225537
-0.00264182
-0.00304501
-0.00344585
-0.00382734
-0.00417549
-0.00447944
-0.00473111
-0.00492418
-0.00505159
-0.00510582
0.00150161
0.00102455
0.000712493
0.000474182
0.000264206
7.16278e-05
-0.000115524
-0.000308969
-0.000517611
-0.000747687
-0.00100304
-0.00128522
-0.00159353
-0.00192511
-0.00227498
-0.00263615
-0.00299979
-0.00335547
-0.00369159
-0.00399586
-0.00425599
-0.00446035
-0.00459883
-0.00466363
-0.0046501
-0.00455757
-0.00438789
-0.00415005
-0.00385589
-0.0035216
-0.00316684
-0.00281366
-0.00248514
-0.00220373
-0.00198961
-0.00185895
-0.00182252
-0.00188462
-0.00204265
-0.00228743
-0.00260415
-0.00297394
-0.00337585
-0.00378885
-0.0041935
-0.00457316
-0.00491447
-0.00520695
-0.00544197
-0.00561384
-0.00572181
0.00152248
0.000982392
0.000635663
0.000375218
0.000146533
-6.47381e-05
-0.000273481
-0.000493797
-0.00073626
-0.00100823
-0.00131424
-0.00165621
-0.00203346
-0.00244282
-0.00287867
-0.003333
-0.00379558
-0.00425426
-0.00469532
-0.00510409
-0.00546561
-0.00576543
-0.00599046
-0.00612994
-0.00617608
-0.00612485
-0.00597848
-0.00574155
-0.00542536
-0.00504598
-0.00462389
-0.00418308
-0.00374974
-0.00335058
-0.00301101
-0.00275306
-0.00259362
-0.00254288
-0.0026034
-0.00276993
-0.00303004
-0.00336556
-0.00375463
-0.00417389
-0.00460071
-0.00501476
-0.00539897
-0.00573921
-0.00602337
-0.00624638
-0.00641395
0.00143827
0.000839456
0.000460094
0.000177774
-7.10711e-05
-0.000304343
-0.000539872
-0.000794113
-0.00107926
-0.00140373
-0.00177274
-0.00218848
-0.00265028
-0.00315461
-0.00369511
-0.00426264
-0.00484547
-0.0054295
-0.00599868
-0.00653565
-0.0070224
-0.00744116
-0.00777536
-0.00801057
-0.00813543
-0.00814252
-0.00803031
-0.00780142
-0.0074651
-0.00703646
-0.00653626
-0.00599016
-0.00542751
-0.00487976
-0.00437837
-0.00395261
-0.00362723
-0.00342033
-0.00334176
-0.00339226
-0.00356351
-0.00383925
-0.00419722
-0.00461163
-0.00505584
-0.00550464
-0.00593583
-0.00633009
-0.00667041
-0.0069514
-0.00718503
0.00122963
0.000577703
0.000168285
-0.000135528
-0.000406076
-0.000664897
-0.000932765
-0.00122843
-0.00156567
-0.00195393
-0.00239907
-0.00290359
-0.00346677
-0.0040847
-0.00475025
-0.00545309
-0.00617985
-0.0069143
-0.00763787
-0.00833015
-0.00896971
-0.00953499
-0.0100053
-0.0103619
-0.010589
-0.0106752
-0.0106141
-0.0104055
-0.0100555
-0.00957759
-0.00899192
-0.00832528
-0.00760994
-0.00688216
-0.00618017
-0.00554165
-0.00500098
-0.00458646
-0.00431781
-0.00420438
-0.0042444
-0.00442536
-0.00472569
-0.00511741
-0.00556922
-0.00604974
-0.00652992
-0.00698348
-0.00738674
-0.00773284
-0.00803998
0.000878762
0.000180572
-0.00025586
-0.000580734
-0.000874668
-0.00116284
-0.00146893
-0.00181391
-0.00221308
-0.00267693
-0.00321196
-0.00382099
-0.00450329
-0.00525458
-0.00606693
-0.00692878
-0.007825
-0.00873713
-0.00964378
-0.0105212
-0.0113442
-0.0120869
-0.0127239
-0.0132315
-0.0135889
-0.0137792
-0.0137914
-0.0136204
-0.0132688
-0.0127469
-0.0120736
-0.0112758
-0.010388
-0.00945104
-0.00850999
-0.00761182
-0.00680215
-0.00612176
-0.00560314
-0.00526752
-0.00512283
-0.00516305
-0.00536924
-0.005712
-0.00615511
-0.00665975
-0.00718813
-0.00770482
-0.00817734
-0.00859608
-0.00898548
0.000370036
-0.000366365
-0.00082636
-0.00117184
-0.00149097
-0.00181252
-0.00216293
-0.00256534
-0.00303654
-0.00358803
-0.00422701
-0.00495667
-0.0057763
-0.00668128
-0.00766291
-0.00870834
-0.00980061
-0.0109189
-0.0120387
-0.0131327
-0.0141715
-0.0151245
-0.0159611
-0.016652
-0.0171705
-0.0174941
-0.0176056
-0.0174948
-0.0171591
-0.0166052
-0.0158489
-0.0149164
-0.013843
-0.0126733
-0.0114588
-0.010256
-0.00912271
-0.00811425
-0.00727885
-0.00665328
-0.00625918
-0.00610081
-0.00616481
-0.00642217
-0.0068321
-0.00734728
-0.00791923
-0.00850083
-0.00904823
-0.00954748
-0.0100294
-0.000309243
-0.00107474
-0.00155447
-0.00192006
-0.00226628
-0.0026253
-0.00302624
-0.00349423
-0.0040475
-0.00469862
-0.0054555
-0.00632175
-0.00729679
-0.00837566
-0.00954889
-0.0108023
-0.0121171
-0.0134698
-0.0148327
-0.0161746
-0.0174616
-0.0186578
-0.0197272
-0.0206343
-0.0213462
-0.0218339
-0.0220739
-0.0220497
-0.0217531
-0.0211855
-0.020359
-0.019297
-0.0180345
-0.016618
-0.0151044
-0.0135587
-0.0120513
-0.0106532
-0.00943099
-0.00844082
-0.00772265
-0.0072959
-0.0071572
-0.00728099
-0.00762329
-0.00812792
-0.00873377
-0.00937921
-0.0100059
-0.0105936
-0.0111788
-0.0011682
-0.00195274
-0.00244806
-0.00283318
-0.00320834
-0.00360888
-0.00406638
-0.00460783
-0.00525286
-0.00601507
-0.00690315
-0.0079212
-0.00906878
-0.0103407
-0.0117266
-0.0132111
-0.0147732
-0.0163868
-0.0180208
-0.0196398
-0.0212049
-0.0226751
-0.0240081
-0.0251625
-0.0260987
-0.026781
-0.0271793
-0.0272704
-0.0270398
-0.0264831
-0.0256072
-0.0244312
-0.0229879
-0.0213237
-0.0194983
-0.0175839
-0.015662
-0.0138195
-0.0121431
-0.0107114
-0.00958778
-0.00881258
-0.00839826
-0.0083276
-0.00855638
-0.00902019
-0.00964387
-0.0103483
-0.011057
-0.0117411
-0.0124433
-0.0022118
-0.00300461
-0.00351105
-0.00391495
-0.00432071
-0.00476654
-0.0052862
-0.0059084
-0.00665405
-0.00753779
-0.0085691
-0.00975263
-0.0110881
-0.01257
-0.0141874
-0.0159231
-0.0177543
-0.0196517
-0.0215806
-0.0235013
-0.0253699
-0.0271397
-0.0287625
-0.0301904
-0.0313775
-0.0322817
-0.032866
-0.0331006
-0.0329649
-0.0324479
-0.0315503
-0.030286
-0.0286831
-0.0267854
-0.024653
-0.0223616
-0.0200015
-0.0176741
-0.0154859
-0.0135404
-0.0119286
-0.0107183
-0.00994484
-0.00960627
-0.00966317
-0.0100453
-0.0106629
-0.0114165
-0.0122075
-0.0129952
-0.0138282
-0.0034404
-0.00423018
-0.00474299
-0.00516467
-0.00560232
-0.00609665
-0.00668334
-0.00739256
-0.0082464
-0.00926051
-0.0104451
-0.0118055
-0.0133414
-0.0150472
-0.0169109
-0.0189139
-0.0210308
-0.0232295
-0.0254713
-0.0277119
-0.0299021
-0.0319898
-0.0339208
-0.0356412
-0.0370989
-0.0382458
-0.0390387
-0.0394415
-0.0394286
-0.0389816
-0.038095
-0.0367761
-0.0350471
-0.0329463
-0.0305305
-0.0278754
-0.0250761
-0.0222445
-0.0195051
-0.0169866
-0.0148105
-0.0130777
-0.011855
-0.0111643
-0.0109785
-0.0112264
-0.0118048
-0.0125917
-0.013462
-0.0143596
-0.015338
-0.00484946
-0.00562468
-0.00613884
-0.00657693
-0.00704718
-0.00759241
-0.00824988
-0.00905095
-0.0100188
-0.0111699
-0.0125153
-0.0140607
-0.015806
-0.0177452
-0.0198652
-0.0221458
-0.024559
-0.0270694
-0.0296341
-0.0322043
-0.0347255
-0.03714
-0.0393881
-0.0414101
-0.0431487
-0.0445503
-0.0455668
-0.0461567
-0.0462899
-0.0459415
-0.0450999
-0.0437656
-0.0419532
-0.0396937
-0.0370372
-0.0340548
-0.030841
-0.0275132
-0.0242093
-0.0210804
-0.0182794
-0.0159448
-0.0141824
-0.0130484
-0.0125384
-0.0125878
-0.0130837
-0.0138808
-0.0148231
-0.0158351
-0.016974
-0.0064295
-0.00717862
-0.00768892
-0.00814156
-0.00864434
-0.00924176
-0.00997228
-0.0108682
-0.0119535
-0.0132455
-0.0147559
-0.0164906
-0.0184498
-0.0206267
-0.0230072
-0.025569
-0.0282815
-0.0311057
-0.0339947
-0.0368946
-0.0397459
-0.0424856
-0.0450488
-0.047371
-0.04939
-0.0510482
-0.0522939
-0.0530832
-0.0533768
-0.0531501
-0.0523852
-0.0510755
-0.0492279
-0.0468644
-0.0440253
-0.040773
-0.0371958
-0.0334098
-0.0295595
-0.025813
-0.0223516
-0.0193532
-0.0169691
-0.0153
-0.0143768
-0.0141528
-0.0145124
-0.0152882
-0.0162902
-0.0174187
-0.0187327
-0.00816622
-0.00887806
-0.00937908
-0.00984381
-0.0103781
-0.0110276
-0.0118316
-0.0128231
-0.0140267
-0.0154602
-0.0171358
-0.0190598
-0.021232
-0.0236451
-0.0262836
-0.029123
-0.0321299
-0.0352614
-0.0384663
-0.0416861
-0.0448564
-0.0479091
-0.0507746
-0.0533843
-0.0556725
-0.0575785
-0.0590482
-0.0600348
-0.0604986
-0.0604101
-0.0597476
-0.0584995
-0.0566649
-0.0542562
-0.0513026
-0.0478541
-0.0439872
-0.0398098
-0.0354644
-0.0311279
-0.0270039
-0.0233067
-0.0202367
-0.0179484
-0.0165214
-0.0159413
-0.0161008
-0.0168153
-0.0178586
-0.0191025
-0.0206054
-0.0100409
-0.0107049
-0.0111911
-0.0116648
-0.0122284
-0.0129282
-0.0138042
-0.0148894
-0.0162088
-0.0177807
-0.0196176
-0.0217258
-0.0241048
-0.0267464
-0.0296335
-0.0327394
-0.0360274
-0.039451
-0.0429547
-0.0464753
-0.0499437
-0.0532872
-0.0564325
-0.0593074
-0.0618438
-0.0639792
-0.0656583
-0.0668335
-0.0674649
-0.0675213
-0.0669788
-0.0658219
-0.0640434
-0.0616469
-0.0586495
-0.0550869
-0.0510196
-0.0465405
-0.0417818
-0.0369187
-0.0321671
-0.0277711
-0.0239785
-0.0210039
-0.0189883
-0.0179663
-0.017854
-0.0184583
-0.0195181
-0.0208725
-0.0225764
-0.012031
-0.0126375
-0.0131035
-0.0135822
-0.0141716
-0.0149182
-0.015862
-0.0170362
-0.0184657
-0.0201691
-0.0221588
-0.0244411
-0.0270149
-0.029871
-0.0329906
-0.0363445
-0.0398929
-0.0435856
-0.0473627
-0.0511568
-0.0548942
-0.0584987
-0.0618932
-0.0650033
-0.0677592
-0.0700979
-0.071964
-0.0733106
-0.0740987
-0.0742977
-0.0738832
-0.0728375
-0.0711492
-0.0688144
-0.0658392
-0.0622444
-0.0580722
-0.0533956
-0.0483281
-0.0430328
-0.0377258
-0.0326697
-0.0281529
-0.024451
-0.0217764
-0.0202296
-0.0197689
-0.0202068
-0.0212514
-0.0227071
-0.024622
-0.0141109
-0.0146516
-0.0150918
-0.0155711
-0.0161813
-0.0169691
-0.0179743
-0.0192296
-0.0207599
-0.0225836
-0.0247131
-0.0271543
-0.0299055
-0.0329563
-0.036286
-0.039863
-0.0436445
-0.0475765
-0.0515953
-0.0556292
-0.0596009
-0.0634305
-0.0670386
-0.0703488
-0.0732907
-0.0758014
-0.0778267
-0.0793215
-0.080249
-0.0805801
-0.0802922
-0.0793672
-0.0777918
-0.0755566
-0.0726589
-0.0691054
-0.0649201
-0.0601531
-0.0548937
-0.0492828
-0.0435237
-0.0378838
-0.0326798
-0.0282428
-0.0248616
-0.0227176
-0.0218321
-0.0220415
-0.0230328
-0.0245758
-0.0267087
-0.0162529
-0.0167211
-0.0171302
-0.0176046
-0.0182294
-0.0190508
-0.0201081
-0.0214336
-0.0230517
-0.0249806
-0.0272324
-0.0298125
-0.0327186
-0.0359389
-0.039451
-0.043221
-0.0472029
-0.0513395
-0.0555636
-0.0597996
-0.0639671
-0.0679833
-0.0717666
-0.0752398
-0.0783321
-0.0809816
-0.0831359
-0.0847524
-0.0857976
-0.0862445
-0.0860738
-0.0852693
-0.0838173
-0.081706
-0.078926
-0.075473
-0.071354
-0.0665964
-0.0612616
-0.0554615
-0.0493752
-0.0432587
-0.0374417
-0.0322989
-0.0281931
-0.025397
-0.0240156
-0.0239318
-0.0248262
-0.0264377
-0.0287926
-0.0184283
-0.0188188
-0.0191921
-0.0196557
-0.0202873
-0.0211326
-0.0222303
-0.0236117
-0.025301
-0.0273159
-0.0296683
-0.0323631
-0.0353971
-0.0387573
-0.0424198
-0.0463483
-0.0504944
-0.0547979
-0.0591881
-0.0635868
-0.0679104
-0.072074
-0.0759944
-0.0795938
-0.0828018
-0.0855576
-0.087811
-0.0895221
-0.0906607
-0.0912042
-0.0911363
-0.0904439
-0.0891151
-0.0871381
-0.0844998
-0.0811883
-0.0771967
-0.0725315
-0.0672266
-0.061361
-0.05508
-0.0486148
-0.0422896
-0.036506
-0.0316908
-0.0282117
-0.0262747
-0.0258337
-0.0265835
-0.0282402
-0.0308175
-0.0206084
-0.0209183
-0.0212512
-0.0216976
-0.022327
-0.0231845
-0.0243079
-0.0257279
-0.0274683
-0.0295465
-0.031974
-0.0347553
-0.0378864
-0.0413536
-0.0451312
-0.0491814
-0.0534533
-0.0578843
-0.0624013
-0.0669231
-0.0713641
-0.0756375
-0.0796593
-0.083351
-0.0866427
-0.0894752
-0.0918001
-0.0935806
-0.0947898
-0.0954091
-0.0954262
-0.0948318
-0.0936175
-0.0917731
-0.0892851
-0.0861372
-0.0823125
-0.077801
-0.0726111
-0.0667886
-0.0604403
-0.053761
-0.0470526
-0.0407227
-0.0352464
-0.0310811
-0.0285452
-0.027688
-0.0282432
-0.0299176
-0.0327143
-0.0227655
-0.0229939
-0.0232829
-0.0237052
-0.0243223
-0.0251781
-0.0263101
-0.0277484
-0.0295165
-0.0316317
-0.0341054
-0.0369418
-0.0401365
-0.043675
-0.0475308
-0.0516644
-0.0560233
-0.0605429
-0.065148
-0.0697554
-0.0742777
-0.078627
-0.082718
-0.0864722
-0.0898204
-0.0927042
-0.0950773
-0.0969053
-0.0981645
-0.09884
-0.0989235
-0.0984101
-0.0972955
-0.0955728
-0.0932304
-0.0902507
-0.0866114
-0.0822902
-0.077275
-0.0715809
-0.0652755
-0.0585101
-0.0515497
-0.0447881
-0.0387269
-0.0339001
-0.0307421
-0.0294182
-0.0297286
-0.0313902
-0.0343998
-0.0248742
-0.0250227
-0.0252648
-0.0256561
-0.0262494
-0.0270881
-0.028209
-0.0296422
-0.0314114
-0.0335343
-0.0360223
-0.0388799
-0.0421027
-0.0456757
-0.0495718
-0.0537506
-0.0581585
-0.0627293
-0.0673864
-0.0720451
-0.0766166
-0.0810118
-0.085145
-0.0889373
-0.0923198
-0.0952349
-0.0976377
-0.0994958
-0.100788
-0.101503
-0.101635
-0.101185
-0.100152
-0.0985338
-0.0963221
-0.093501
-0.0900463
-0.0859286
-0.0811205
-0.0756118
-0.0694333
-0.0626908
-0.0556027
-0.0485309
-0.0419802
-0.0365415
-0.0327594
-0.0309299
-0.0309472
-0.032563
-0.0357764
-0.0269122
-0.0269845
-0.027178
-0.0275311
-0.0280886
-0.0288927
-0.0299804
-0.0313824
-0.0331231
-0.0352214
-0.0376895
-0.0405325
-0.0437465
-0.0473166
-0.0512155
-0.0554026
-0.0598233
-0.0644108
-0.0690874
-0.0737671
-0.0783603
-0.0827769
-0.0869305
-0.090742
-0.0941422
-0.0970739
-0.0994932
-0.101369
-0.102681
-0.103422
-0.103588
-0.103184
-0.102214
-0.100679
-0.0985768
-0.0958939
-0.0926076
-0.0886857
-0.0840913
-0.078795
-0.0727965
-0.066158
-0.0590471
-0.0517801
-0.0448433
-0.0388602
-0.0344715
-0.0321098
-0.0317895
-0.0333251
-0.0367307
-0.0288602
-0.028863
-0.0290081
-0.0293158
-0.0298241
-0.0305746
-0.0316045
-0.0329462
-0.0346262
-0.0366651
-0.039077
-0.0418683
-0.0450361
-0.0485664
-0.0524321
-0.0565925
-0.060993
-0.065566
-0.0702342
-0.0749092
-0.0795015
-0.0839202
-0.088078
-0.0918951
-0.0953019
-0.0982411
-0.100669
-0.102554
-0.103878
-0.104634
-0.104823
-0.104451
-0.103525
-0.102052
-0.100033
-0.0974609
-0.0943154
-0.0905648
-0.0861679
-0.0810826
-0.0752845
-0.0687978
-0.06174
-0.054374
-0.0471494
-0.0406978
-0.0357345
-0.0328265
-0.0321282
-0.0335484
-0.0371334
-0.0307042
-0.0306469
-0.0307436
-0.0310001
-0.0314455
-0.0321214
-0.0330661
-0.0343159
-0.0359
-0.0378425
-0.0401602
-0.0428621
-0.0459467
-0.0494014
-0.0531998
-0.0573018
-0.0616524
-0.0661834
-0.0708218
-0.0754706
-0.0800447
-0.0844514
-0.0886024
-0.0924168
-0.0958242
-0.0987664
-0.101199
-0.10309
-0.104422
-0.105189
-0.105391
-0.105037
-0.104139
-0.102707
-0.100745
-0.098252
-0.0952114
-0.091595
-0.0873609
-0.0824602
-0.0768517
-0.0705292
-0.0635649
-0.0561668
-0.0487354
-0.0418876
-0.0363893
-0.0329298
-0.0318174
-0.0330862
-0.0368375
-0.0324345
-0.0323296
-0.0323803
-0.0325787
-0.0329463
-0.0335245
-0.0343552
-0.0354782
-0.0369286
-0.0387355
-0.0409201
-0.0434945
-0.0464599
-0.0498052
-0.0535054
-0.0575209
-0.0617974
-0.0662666
-0.0708505
-0.0754602
-0.0800045
-0.0843903
-0.0885283
-0.0923365
-0.0957429
-0.098688
-0.101126
-0.103024
-0.104363
-0.105137
-0.105348
-0.105005
-0.10412
-0.102708
-0.100777
-0.0983289
-0.0953528
-0.0918243
-0.0877038
-0.0829401
-0.0774821
-0.0713014
-0.0644328
-0.0570326
-0.0494467
-0.04226
-0.0362639
-0.0322521
-0.0306915
-0.0317718
-0.0356763
-0.0340468
-0.0339098
-0.0339185
-0.0340524
-0.0343262
-0.0347815
-0.0354651
-0.0364236
-0.0377
-0.0393306
-0.0413423
-0.0437519
-0.0465637
-0.0497687
-0.0533432
-0.0572483
-0.06143
-0.06582
-0.0703389
-0.0748984
-0.0794055
-0.0837662
-0.0878897
-0.0916921
-0.0950999
-0.0980513
-0.100498
-0.102407
-0.103757
-0.104539
-0.104756
-0.104417
-0.103535
-0.102125
-0.100199
-0.0977613
-0.0948063
-0.0913132
-0.0872461
-0.0825548
-0.0771835
-0.0710897
-0.0642798
-0.0568659
-0.0491401
-0.0416444
-0.0351746
-0.0306067
-0.0285629
-0.029415
-0.0334609
-0.0355419
-0.0353924
-0.0353646
-0.0354274
-0.0355893
-0.0358933
-0.0363935
-0.0371465
-0.0382061
-0.0396179
-0.041417
-0.0436255
-0.0462518
-0.0492892
-0.0527152
-0.0564912
-0.0605632
-0.0648626
-0.0693091
-0.0738134
-0.0782811
-0.0826168
-0.0867281
-0.0905291
-0.0939439
-0.0969083
-0.0993718
-0.101298
-0.102663
-0.103458
-0.103682
-0.103342
-0.102453
-0.10103
-0.0990842
-0.0966235
-0.0936443
-0.0901298
-0.0860477
-0.0813501
-0.0759806
-0.069889
-0.0630628
-0.0555796
-0.0476837
-0.0398712
-0.0329266
-0.027787
-0.0252189
-0.0257983
-0.0299755
-0.0369265
-0.0367888
-0.0367317
-0.0367156
-0.0367444
-0.0368646
-0.0371407
-0.0376435
-0.0384407
-0.0395906
-0.0411379
-0.0431114
-0.0455239
-0.0483708
-0.0516306
-0.0552646
-0.059218
-0.0634213
-0.0677929
-0.072242
-0.0766728
-0.0809881
-0.0850933
-0.0889003
-0.0923305
-0.0953171
-0.0978063
-0.0997586
-0.101148
-0.10196
-0.102193
-0.101853
-0.10095
-0.0994978
-0.0975096
-0.0949919
-0.0919424
-0.0883462
-0.0841736
-0.0793797
-0.0739087
-0.067708
-0.0607541
-0.0531011
-0.0449552
-0.0367703
-0.0293125
-0.0235625
-0.0204165
-0.0206698
-0.0249704
-0.0382135
-0.038118
-0.0380404
-0.037935
-0.0378045
-0.0377026
-0.0377086
-0.0379121
-0.0383994
-0.0392441
-0.0405021
-0.0422101
-0.044385
-0.0470242
-0.0501062
-0.0535915
-0.0574236
-0.0615312
-0.065831
-0.0702301
-0.0746309
-0.0789339
-0.0830423
-0.0868655
-0.0903221
-0.0933419
-0.095868
-0.097857
-0.099279
-0.100117
-0.100363
-0.100021
-0.0990984
-0.0976055
-0.0955522
-0.0929437
-0.0897765
-0.0860353
-0.081691
-0.0766999
-0.0710079
-0.0645621
-0.0573346
-0.0493662
-0.0408372
-0.0321682
-0.0241086
-0.0176735
-0.0138737
-0.0137339
-0.0181519
-0.0394234
-0.0394092
-0.0393204
-0.0391107
-0.0387863
-0.0384159
-0.0380988
-0.0379497
-0.0380779
-0.0385749
-0.0395095
-0.0409263
-0.0428461
-0.045267
-0.0481667
-0.0515033
-0.055218
-0.0592365
-0.063473
-0.0678321
-0.0722136
-0.0765159
-0.0806397
-0.0844915
-0.087987
-0.0910526
-0.0936278
-0.095665
-0.09713
-0.0980007
-0.0982661
-0.0979237
-0.0969757
-0.0954289
-0.0932884
-0.0905548
-0.0872209
-0.0832683
-0.0786653
-0.0733669
-0.0673191
-0.0604693
-0.052789
-0.0443141
-0.0352127
-0.0258843
-0.0170703
-0.00982232
-0.00525801
-0.00463637
-0.00916585
-0.0405818
-0.040709
-0.0406139
-0.040277
-0.0397088
-0.0390134
-0.0383116
-0.0377521
-0.0374713
-0.0375809
-0.0381631
-0.0392699
-0.0409245
-0.0431247
-0.0458452
-0.0490408
-0.0526485
-0.0565905
-0.0607773
-0.0651106
-0.0694873
-0.0738033
-0.0779565
-0.0818509
-0.0853989
-0.0885236
-0.0911603
-0.0932572
-0.0947752
-0.0956871
-0.0959757
-0.0956324
-0.0946549
-0.0930415
-0.0907909
-0.087897
-0.0843457
-0.0801119
-0.0751577
-0.069433
-0.0628804
-0.055446
-0.0471026
-0.0378846
-0.0279592
-0.0177248
-0.00792581
0.000336512
0.00583189
0.00705748
0.00242869
-0.041743
-0.0420759
-0.0419782
-0.0414685
-0.040603
-0.0395056
-0.0383451
-0.0373124
-0.0365743
-0.0362619
-0.0364702
-0.037257
-0.0386459
-0.0406318
-0.043185
-0.0462546
-0.0497725
-0.0536561
-0.0578114
-0.0621367
-0.0665258
-0.0708717
-0.0750698
-0.0790213
-0.0826353
-0.0858317
-0.0885416
-0.0907087
-0.0922885
-0.0932479
-0.0935634
-0.0932193
-0.0922047
-0.0905104
-0.0881257
-0.0850349
-0.0812136
-0.076626
-0.0712233
-0.0649453
-0.0577261
-0.0495064
-0.040258
-0.0300233
-0.0189514
-0.00748106
0.0036283
0.013208
0.0198885
0.0218949
0.0172041
-0.0429806
-0.0436097
-0.0434992
-0.0427487
-0.041488
-0.0398948
-0.0381997
-0.0366215
-0.0353823
-0.0346212
-0.0344445
-0.0349125
-0.036046
-0.0378342
-0.0402404
-0.0432066
-0.0466578
-0.0505056
-0.0546512
-0.0589888
-0.0634089
-0.0678016
-0.0720599
-0.0760819
-0.0797743
-0.0830531
-0.0858456
-0.0880905
-0.0897381
-0.0907487
-0.0910918
-0.0907432
-0.089683
-0.0878919
-0.0853478
-0.0820223
-0.0778772
-0.0728613
-0.0669099
-0.0599463
-0.0518892
-0.0426667
-0.0322428
-0.020659
-0.00809406
0.00505509
0.0179244
0.0292647
0.0375209
0.0405803
0.0359376
-0.0444264
-0.0454659
-0.0453001
-0.0441915
-0.0424012
-0.04019
-0.037857
-0.0356821
-0.033896
-0.03267
-0.0321102
-0.0322735
-0.0331738
-0.0347909
-0.0370787
-0.0399703
-0.0433826
-0.0472204
-0.0513798
-0.0557505
-0.0602198
-0.064675
-0.0690065
-0.0731102
-0.0768897
-0.0802579
-0.0831382
-0.0854647
-0.0871816
-0.0882429
-0.0886102
-0.0882504
-0.0871331
-0.0852273
-0.0824972
-0.078899
-0.0743767
-0.0688593
-0.0622599
-0.0544781
-0.0454083
-0.0349562
-0.023068
-0.00977475
0.00474148
0.0200458
0.0352957
0.0490419
0.0594786
0.0640382
0.0597338
-0.0463256
-0.0478988
-0.0475671
-0.0459019
-0.0433898
-0.0404057
-0.0373265
-0.0344829
-0.0321273
-0.0304332
-0.0295072
-0.0293937
-0.0300942
-0.0315759
-0.0337804
-0.0366301
-0.0400334
-0.0438876
-0.0480833
-0.052506
-0.0570398
-0.0615695
-0.0659832
-0.0701746
-0.074045
-0.0775042
-0.0804719
-0.0828776
-0.0846601
-0.0857665
-0.0861503
-0.0857688
-0.0845803
-0.0825406
-0.0795981
-0.0756912
-0.0707424
-0.064656
-0.057317
-0.0485931
-0.0383439
-0.0264395
-0.0127924
0.00259406
0.0195543
0.0376506
0.0560049
0.0730958
0.0866686
0.0935137
0.0902318
-0.0491533
-0.0513375
-0.0505857
-0.0480327
-0.0445224
-0.0405686
-0.0366216
-0.0330473
-0.030107
-0.0279557
-0.0266961
-0.0263459
-0.0268891
-0.0282768
-0.030436
-0.0332775
-0.0367001
-0.0405942
-0.0448446
-0.0493333
-0.0539413
-0.0585512
-0.0630495
-0.0673282
-0.0712863
-0.0748313
-0.0778796
-0.0803563
-0.0821949
-0.0833359
-0.0837245
-0.0833082
-0.0820334
-0.0798415
-0.0766634
-0.0724179
-0.067003
-0.0602941
-0.052142
-0.0423747
-0.0308059
-0.0172536
-0.00157413
0.0162851
0.0362104
0.0578046
0.0801952
0.101866
0.120138
0.130712
0.129901
-0.0538652
-0.0565134
-0.0547844
-0.0507986
-0.0458996
-0.0407289
-0.0357784
-0.031417
-0.0278841
-0.0253114
-0.0237571
-0.0232173
-0.0236502
-0.0249862
-0.0271365
-0.0299994
-0.0334644
-0.0374152
-0.0417318
-0.0462926
-0.0509767
-0.0556651
-0.0602429
-0.0646011
-0.0686372
-0.0722567
-0.075373
-0.0779077
-0.0797892
-0.0809516
-0.0813321
-0.0808684
-0.0794945
-0.0771372
-0.0737088
-0.0691078
-0.0632059
-0.0558463
-0.0468417
-0.0359733
-0.0229978
-0.00766357
0.0102568
0.0309137
0.054302
0.080142
0.107681
0.135428
0.16087
0.177806
0.182231
-0.0624488
-0.0646683
-0.0607479
-0.0544469
-0.0476203
-0.0409257
-0.0348212
-0.0296232
-0.0255083
-0.0225507
-0.0207552
-0.0200794
-0.0204504
-0.0217754
-0.0239487
-0.0268565
-0.0303797
-0.0343962
-0.0387822
-0.0434138
-0.0481686
-0.052927
-0.0575736
-0.0619986
-0.066099
-0.0697785
-0.0729486
-0.0755275
-0.077439
-0.0786115
-0.0789747
-0.0784567
-0.0769803
-0.0744604
-0.0707806
-0.0658291
-0.0594493
-0.0514518
-0.0416092
-0.0296522
-0.0152719
0.00186941
0.0221139
0.0457627
0.0730029
0.10379
0.137674
0.173589
0.209051
0.236937
0.251647
-0.0791205
-0.0778219
-0.0691565
-0.0591455
-0.0496491
-0.0410539
-0.0336405
-0.0275811
-0.0229271
-0.0196536
-0.0176921
-0.0169487
-0.0173143
-0.0186717
-0.0208991
-0.023872
-0.0274648
-0.0315512
-0.0360053
-0.0407022
-0.0455192
-0.0503369
-0.0550403
-0.0595199
-0.0636721
-0.0674
-0.0706133
-0.0732275
-0.0751627
-0.0763418
-0.076688
-0.0761209
-0.0745521
-0.071877
-0.0679864
-0.062726
-0.0559209
-0.0473551
-0.0367641
-0.0238293
-0.008174
0.0106362
0.0330852
0.0596839
0.0909239
0.127186
0.1686
0.214909
0.264244
0.309399
0.345335
-0.113094
-0.0982148
-0.080225
-0.0644594
-0.0513143
-0.040457
-0.0317068
-0.0249049
-0.0198758
-0.0164471
-0.0144577
-0.0137559
-0.0141981
-0.0156467
-0.0179681
-0.0210318
-0.0247092
-0.0288729
-0.0333972
-0.0381582
-0.0430344
-0.0479076
-0.0526639
-0.0571946
-0.0613964
-0.0651722
-0.0684302
-0.071084
-0.0730505
-0.0742482
-0.0745944
-0.0740024
-0.0723791
-0.0696017
-0.0655563
-0.0600701
-0.0529499
-0.0439588
-0.0328032
-0.0191246
-0.00248791
0.0176318
0.0418662
0.0709737
0.105862
0.147598
0.197382
0.256462
0.324836
0.397054
0.480919
-0.189194
-0.123285
-0.0881689
-0.0650217
-0.0483117
-0.0358879
-0.0266699
-0.0199114
-0.0151211
-0.0119893
-0.010298
-0.00987185
-0.0105583
-0.0122191
-0.0147237
-0.017946
-0.0217616
-0.0260476
-0.0306819
-0.0355438
-0.0405145
-0.0454783
-0.050323
-0.054941
-0.0592298
-0.063092
-0.0664354
-0.0691723
-0.0712175
-0.072487
-0.0728936
-0.0723417
-0.0707284
-0.0679659
-0.0638897
-0.0583314
-0.0510913
-0.0419206
-0.0305113
-0.0164836
0.000630733
0.0214142
0.046603
0.0771553
0.114376
0.160138
0.217274
0.290091
0.384766
0.507241
0.689397
-0.378006
-0.144334
-0.0694512
-0.0448854
-0.0303857
-0.0202642
-0.0134767
-0.00890632
-0.00585487
-0.00404491
-0.00335754
-0.00370283
-0.00499198
-0.00713373
-0.0100323
-0.0135864
-0.0176899
-0.0222324
-0.0271015
-0.0321832
-0.0373638
-0.042531
-0.0475751
-0.05239
-0.056874
-0.0609301
-0.0644658
-0.0673926
-0.0696247
-0.0710773
-0.071665
-0.0713005
-0.0698812
-0.0672742
-0.0633534
-0.057955
-0.0508765
-0.0418707
-0.030633
-0.0167875
0.00013276
0.0207143
0.0457117
0.0761361
0.113437
0.159886
0.219573
0.300638
0.421881
0.618979
0.978742
)
;

boundaryField
{