/*--------------------------------*- C++ -*----------------------------------*\
| =========                 |                                                 |
| \\      /  F ield         | OpenFOAM: The Open Source CFD Toolbox           |
|  \\    /   O peration     | Version:  2312                                  |
|   \\  /    A nd           | Website:  www.openfoam.com                      |
|    \\/     M anipulation  |                                                 |
\*---------------------------------------------------------------------------*/
FoamFile
{
    version     2.0;
    format      ascii;
    arch        "LSB;label=32;scalar=64";
    class       surfaceScalarField;
    location    "50";
    object      phi;
}
// * * * * * * * * * * * * * * * * * * * * * * * * * * * * * * * * * * * * * //

dimensions      [0 3 -1 0 0 0 0];

oriented        oriented;

internalField   nonuniform List<scalar> 
4900
(
2.01964e-07
-2.02655e-07
4.26091e-07
-2.24127e-07
4.85135e-07
-5.90436e-08
3.14387e-07
1.70748e-07
-8.33026e-08
3.97689e-07
-6.84301e-07
6.00999e-07
-1.45899e-06
7.74692e-07
-2.37917e-06
9.20178e-07
-3.42196e-06
1.04279e-06
-4.57003e-06
1.14807e-06
-5.8102e-06
1.24017e-06
-7.13143e-06
1.32123e-06
-8.52276e-06
1.39134e-06
-9.9715e-06
1.44874e-06
-1.14617e-05
1.49024e-06
-1.29734e-05
1.51164e-06
-1.44816e-05
1.5082e-06
-1.59567e-05
1.47508e-06
-1.73644e-05
1.40775e-06
-1.86668e-05
1.30239e-06
-1.98231e-05
1.15631e-06
-2.07914e-05
9.68271e-07
-2.15302e-05
7.38845e-07
-2.2001e-05
4.70726e-07
-2.21699e-05
1.68956e-07
-2.20104e-05
-1.59515e-07
-2.15057e-05
-5.04682e-07
-2.06508e-05
-8.54954e-07
-1.94538e-05
-1.19695e-06
-1.79375e-05
-1.5163e-06
-1.61391e-05
-1.79842e-06
-1.41097e-05
-2.02942e-06
-1.19126e-05
-2.19707e-06
-9.62081e-06
-2.2918e-06
-7.31327e-06
-2.30754e-06
-5.07099e-06
-2.24229e-06
-2.97253e-06
-2.09845e-06
-1.0897e-06
-1.88283e-06
5.16582e-07
-1.60629e-06
1.79953e-06
-1.28295e-06
2.72775e-06
-9.28223e-07
3.28817e-06
-5.60415e-07
3.48593e-06
-1.97762e-07
3.34544e-06
1.40489e-07
2.91167e-06
4.33776e-07
2.25373e-06
6.57932e-07
1.47143e-06
7.82304e-07
7.06085e-07
7.65346e-07
1.5221e-07
5.53877e-07
1.52212e-07
2.3119e-07
-4.33845e-07
3.1618e-07
-3.09117e-07
-1.76976e-08
2.74834e-07
-8.68612e-07
1.02166e-06
-2.25682e-06
1.7859e-06
-4.145e-06
2.48918e-06
-6.47614e-06
3.10583e-06
-9.19158e-06
3.63562e-06
-1.22381e-05
4.08934e-06
-1.557e-05
4.47996e-06
-1.91474e-05
4.8175e-06
-2.29327e-05
5.1066e-06
-2.68874e-05
5.34597e-06
-3.09674e-05
5.52883e-06
-3.51213e-05
5.64406e-06
-3.92872e-05
5.67761e-06
-4.33931e-05
5.61405e-06
-4.73561e-05
5.43809e-06
-5.10843e-05
5.13601e-06
-5.4479e-05
4.69705e-06
-5.74373e-05
4.11466e-06
-5.98567e-05
3.38762e-06
-6.16389e-05
2.52107e-06
-6.26953e-05
1.52714e-06
-6.29523e-05
4.25935e-07
-6.23556e-05
-7.56252e-07
-6.08749e-05
-1.9854e-06
-5.85093e-05
-3.2205e-06
-5.52892e-05
-4.41708e-06
-5.12776e-05
-5.52784e-06
-4.65706e-05
-6.50544e-06
-4.12948e-05
-7.30523e-06
-3.56037e-05
-7.88822e-06
-2.96715e-05
-8.22394e-06
-2.36861e-05
-8.29291e-06
-1.78399e-05
-8.08853e-06
-1.23203e-05
-7.61807e-06
-7.30035e-06
-6.90277e-06
-2.92981e-06
-5.97682e-06
6.72727e-07
-4.88549e-06
3.42733e-06
-3.68283e-06
5.29422e-06
-2.4273e-06
6.27982e-06
-1.18336e-06
6.44042e-06
-2.01162e-08
5.87936e-06
9.9484e-07
4.75809e-06
1.7792e-06
3.29692e-06
2.24348e-06
1.7803e-06
2.28196e-06
5.51619e-07
1.78256e-06
7.03832e-07
5.61019e-08
-4.89947e-07
-3.17006e-07
6.39911e-08
-1.36157e-06
1.3194e-06
-3.17656e-06
2.83666e-06
-5.76171e-06
4.37104e-06
-9.06846e-06
5.79594e-06
-1.3024e-05
7.0614e-06
-1.75502e-05
8.16183e-06
-2.25727e-05
9.11177e-06
-2.8023e-05
9.93033e-06
-3.38375e-05
1.06319e-05
-3.99526e-05
1.12217e-05
-4.63007e-05
1.16941e-05
-5.28056e-05
1.20338e-05
-5.93794e-05
1.22178e-05
-6.592e-05
1.22182e-05
-7.23113e-05
1.20053e-05
-7.84237e-05
1.15505e-05
-8.41169e-05
1.08292e-05
-8.92435e-05
9.8237e-06
-9.3654e-05
8.52513e-06
-9.72022e-05
6.93583e-06
-9.97519e-05
5.07081e-06
-0.000101184
2.9589e-06
-0.000101402
6.44159e-07
-0.000100339
-1.81962e-06
-9.79633e-05
-4.36064e-06
-9.42851e-05
-6.89876e-06
-8.93558e-05
-9.34632e-06
-8.32721e-05
-1.16116e-05
-7.61742e-05
-1.36034e-05
-6.82432e-05
-1.52362e-05
-5.96958e-05
-1.64356e-05
-5.07769e-05
-1.71429e-05
-4.17495e-05
-1.73203e-05
-3.28842e-05
-1.69538e-05
-2.44465e-05
-1.60558e-05
-1.6684e-05
-1.46653e-05
-9.81436e-06
-1.28465e-05
-4.01375e-06
-1.06861e-05
5.92272e-07
-8.28885e-06
3.93858e-06
-5.77361e-06
6.02004e-06
-3.26481e-06
6.90333e-06
-9.03407e-07
6.72684e-06
1.17132e-06
5.70045e-06
2.80559e-06
4.11152e-06
3.83241e-06
2.32363e-06
4.06985e-06
7.7446e-07
3.33173e-06
1.47829e-06
-2.22859e-07
-2.67088e-07
-1.2437e-06
1.08483e-06
-3.22875e-06
3.30445e-06
-6.21593e-06
5.82384e-06
-1.01734e-05
8.32849e-06
-1.50283e-05
1.06508e-05
-2.06896e-05
1.27227e-05
-2.70628e-05
1.4535e-05
-3.40567e-05
1.61057e-05
-4.15848e-05
1.74584e-05
-4.95623e-05
1.86094e-05
-5.79017e-05
1.95611e-05
-6.65079e-05
2.03002e-05
-7.52734e-05
2.07993e-05
-8.40756e-05
2.10201e-05
-9.27754e-05
2.0918e-05
-0.000101217
2.04471e-05
-0.000109231
1.95647e-05
-0.000116638
1.82359e-05
-0.000123252
1.64377e-05
-0.000128889
1.41622e-05
-0.000133373
1.14196e-05
-0.000136542
8.24044e-06
-0.00013826
4.67635e-06
-0.000138418
8.02157e-07
-0.000136944
-3.29348e-06
-0.000133811
-7.49382e-06
-0.000129037
-1.16724e-05
-0.000122692
-1.56915e-05
-0.000114896
-1.94078e-05
-0.000105819
-2.26799e-05
-9.56802e-05
-2.53752e-05
-8.47385e-05
-2.73773e-05
-7.32873e-05
-2.85941e-05
-6.16431e-05
-2.89645e-05
-5.01333e-05
-2.84636e-05
-3.90824e-05
-2.71066e-05
-2.87975e-05
-2.49502e-05
-1.95529e-05
-2.20911e-05
-1.15765e-05
-1.86625e-05
-5.03738e-06
-1.48279e-05
-3.61541e-08
-1.07748e-05
3.41025e-06
-6.71122e-06
5.35704e-06
-2.85019e-06
5.95196e-06
5.76393e-07
5.42926e-06
3.3283e-06
4.11129e-06
5.15037e-06
2.40926e-06
5.77188e-06
8.27164e-07
4.91383e-06
2.30546e-06
-5.47996e-07
2.80908e-07
-2.34368e-06
2.88051e-06
-5.42062e-06
6.38139e-06
-9.73526e-06
1.01385e-05
-1.5201e-05
1.37942e-05
-2.17097e-05
1.71595e-05
-2.91472e-05
2.01603e-05
-3.7402e-05
2.27898e-05
-4.63679e-05
2.50716e-05
-5.59426e-05
2.70331e-05
-6.6023e-05
2.86898e-05
-7.65002e-05
3.00383e-05
-8.72537e-05
3.10538e-05
-9.81478e-05
3.16933e-05
-0.000109029
3.19008e-05
-0.000119724
3.16133e-05
-0.000130045
3.0768e-05
-0.000139789
2.93086e-05
-0.000148745
2.71918e-05
-0.000156699
2.4392e-05
-0.000163443
2.0906e-05
-0.000168779
1.67562e-05
-0.000172532
1.19929e-05
-0.000174551
6.69533e-06
-0.000174722
9.73387e-07
-0.000172971
-5.04454e-06
-0.000169271
-1.11937e-05
-0.000163646
-1.72973e-05
-0.000156174
-2.31634e-05
-0.000146988
-2.85939e-05
-0.000136276
-3.33924e-05
-0.000124277
-3.73743e-05
-0.000111277
-4.03765e-05
-9.76044e-05
-4.22672e-05
-8.36127e-05
-4.29562e-05
-6.96744e-05
-4.24019e-05
-5.6163e-05
-4.0618e-05
-4.34377e-05
-3.76755e-05
-3.1826e-05
-3.37028e-05
-2.16073e-05
-2.88812e-05
-1.29971e-05
-2.34381e-05
-6.13385e-06
-1.7638e-05
-1.07159e-06
-1.17735e-05
2.23376e-06
-6.15555e-06
3.92121e-06
-1.11105e-06
4.22945e-06
3.02006e-06
3.49666e-06
5.88316e-06
2.1613e-06
7.10724e-06
7.67964e-07
6.30716e-06
3.07342e-06
-8.99916e-07
1.18082e-06
-3.54236e-06
5.52296e-06
-7.81005e-06
1.06491e-05
-1.35561e-05
1.58845e-05
-2.0624e-05
2.08621e-05
-2.88605e-05
2.53961e-05
-3.81229e-05
2.94226e-05
-4.82805e-05
3.29474e-05
-5.92124e-05
3.60036e-05
-7.08022e-05
3.86228e-05
-8.29308e-05
4.08185e-05
-9.54705e-05
4.2578e-05
-0.000108279
4.38621e-05
-0.000121195
4.46097e-05
-0.000134039
4.47448e-05
-0.000146611
4.41853e-05
-0.000158695
4.2852e-05
-0.000170063
4.06765e-05
-0.000180481
3.76093e-05
-0.000189714
3.36252e-05
-0.000197537
2.8729e-05
-0.000203739
2.29584e-05
-0.000208132
1.63864e-05
-0.000210559
9.12227e-06
-0.000210898
1.3124e-06
-0.00020907
-6.87277e-06
-0.000205043
-1.52204e-05
-0.000198839
-2.35019e-05
-0.000190532
-3.14699e-05
-0.000180257
-3.88688e-05
-0.000168205
-4.54444e-05
-0.000154624
-5.09553e-05
-0.000139816
-5.51853e-05
-0.000124127
-5.79563e-05
-0.000107942
-5.91406e-05
-9.16719e-05
-5.86722e-05
-7.57348e-05
-5.65551e-05
-6.05413e-05
-5.2869e-05
-4.64741e-05
-4.77699e-05
-3.38689e-05
-4.14865e-05
-2.29952e-05
-3.43119e-05
-1.40404e-05
-2.65928e-05
-7.09728e-06
-1.87166e-05
-2.154e-06
-1.10988e-05
9.09911e-07
-4.17496e-06
2.32518e-06
1.60479e-06
2.43241e-06
5.77594e-06
1.68245e-06
7.8572e-06
6.39402e-07
7.3502e-06
3.71282e-06
-1.266e-06
2.44683e-06
-4.79479e-06
9.05175e-06
-1.03092e-05
1.61635e-05
-1.75464e-05
2.31216e-05
-2.62695e-05
2.95852e-05
-3.6273e-05
3.53996e-05
-4.73811e-05
4.05307e-05
-5.94421e-05
4.50084e-05
-7.23203e-05
4.88818e-05
-8.58862e-05
5.21887e-05
-0.000100007
5.49393e-05
-0.000114539
5.711e-05
-0.000129321
5.86446e-05
-0.000144173
5.94616e-05
-0.000158893
5.94644e-05
-0.000173259
5.85517e-05
-0.000187036
5.66288e-05
-0.000199977
5.36174e-05
-0.000211832
4.94637e-05
-0.000222352
4.41457e-05
-0.000231301
3.76781e-05
-0.000238458
3.01155e-05
-0.000243626
2.15546e-05
-0.000246639
1.21343e-05
-0.000247363
2.03663e-06
-0.00024571
-8.52601e-06
-0.000241635
-1.92954e-05
-0.000235145
-2.99913e-05
-0.000226304
-4.03113e-05
-0.000215232
-4.9941e-05
-0.000202111
-5.8565e-05
-0.000187186
-6.58801e-05
-0.000170761
-7.161e-05
-0.000153197
-7.55209e-05
-0.0001349
-7.74374e-05
-0.000116315
-7.72573e-05
-9.79053e-05
-7.49647e-05
-8.01363e-05
-7.06381e-05
-6.3452e-05
-6.44543e-05
-4.82527e-05
-5.66858e-05
-3.48725e-05
-4.76921e-05
-2.3559e-05
-3.79062e-05
-1.44573e-05
-2.78184e-05
-7.5977e-06
-1.79584e-05
-2.89028e-06
-8.88238e-06
-1.22732e-07
-1.16276e-06
1.03872e-06
4.61449e-06
1.04615e-06
7.84977e-06
4.69046e-07
7.9273e-06
4.18187e-06
-1.63744e-06
4.08427e-06
-6.06867e-06
1.3483e-05
-1.28516e-05
2.29465e-05
-2.16009e-05
3.1871e-05
-3.19942e-05
3.99785e-05
-4.37689e-05
4.71743e-05
-5.67135e-05
5.34753e-05
-7.06541e-05
5.8949e-05
-8.54402e-05
6.36678e-05
-0.00010093
6.76789e-05
-0.000116981
7.09895e-05
-0.000133434
7.35633e-05
-0.000150115
7.5326e-05
-0.000166828
7.61748e-05
-0.000183356
7.59919e-05
-0.000199462
7.46575e-05
-0.000214896
7.20629e-05
-0.0002294
6.81215e-05
-0.000242714
6.27774e-05
-0.000254581
5.6013e-05
-0.000264756
4.78536e-05
-0.000273011
3.83703e-05
-0.000279139
2.76822e-05
-0.00028296
1.59557e-05
-0.000284328
3.40502e-06
-0.000283136
-9.71801e-06
-0.000279318
-2.31138e-05
-0.000272857
-3.64527e-05
-0.00026379
-4.93784e-05
-0.000252214
-6.1517e-05
-0.000238289
-7.2489e-05
-0.000222246
-8.1924e-05
-0.000204378
-8.94771e-05
-0.000185052
-9.48475e-05
-0.00016469
-9.7799e-05
-0.000143769
-9.8179e-05
-0.000122797
-9.59367e-05
-0.000102298
-9.11363e-05
-8.27877e-05
-8.39649e-05
-6.47415e-05
-7.4732e-05
-4.85717e-05
-6.38618e-05
-3.46009e-05
-5.18771e-05
-2.30407e-05
-3.93786e-05
-1.3977e-05
-2.70221e-05
-7.36183e-06
-1.54976e-05
-3.01079e-06
-5.51379e-06
-6.05908e-07
2.20961e-06
2.99464e-07
6.9444e-06
2.7368e-07
7.95308e-06
4.45555e-06
-2.0073e-06
6.09157e-06
-7.33681e-06
1.88125e-05
-1.53804e-05
3.099e-05
-2.56285e-05
4.21191e-05
-3.76711e-05
5.2021e-05
-5.11872e-05
6.06904e-05
-6.59284e-05
6.82166e-05
-8.16985e-05
7.47191e-05
-9.83326e-05
8.03019e-05
-0.000115679
8.50254e-05
-0.000133584
8.88947e-05
-0.000151882
9.1861e-05
-0.000170387
9.38308e-05
-0.000188892
9.46799e-05
-0.00020717
9.42697e-05
-0.000224975
9.24631e-05
-0.000242051
8.91389e-05
-0.000258133
8.42034e-05
-0.000272956
7.75998e-05
-0.000286258
6.93149e-05
-0.000297788
5.93837e-05
-0.00030731
4.78921e-05
-0.000314605
3.49781e-05
-0.000319481
2.08315e-05
-0.00032177
5.69388e-06
-0.00032134
-1.01482e-05
-0.000318095
-2.63588e-05
-0.000311985
-4.25625e-05
-0.000303012
-5.83513e-05
-0.000291237
-7.32921e-05
-0.000276787
-8.69392e-05
-0.000259862
-9.88491e-05
-0.000240739
-0.000108599
-0.000219776
-0.000115811
-0.000197406
-0.000120169
-0.000174129
-0.000121456
-0.000150501
-0.000119565
-0.00012711
-0.000114528
-0.000104546
-0.000106528
-8.33772e-05
-9.5901e-05
-6.41089e-05
-8.31301e-05
-4.71563e-05
-6.88297e-05
-3.28156e-05
-5.37193e-05
-2.12443e-05
-3.85933e-05
-1.24499e-05
-2.42919e-05
-6.28661e-06
-1.16771e-05
-2.45893e-06
-1.61807e-06
-5.30748e-07
5.01622e-06
6.23082e-08
7.36003e-06
4.51786e-06
-2.36861e-06
8.46017e-06
-8.57328e-06
2.50172e-05
-1.78423e-05
4.02591e-05
-2.9544e-05
5.38208e-05
-4.31817e-05
6.56586e-05
-5.83768e-05
7.58856e-05
-7.48447e-05
8.46844e-05
-9.23671e-05
9.22415e-05
-0.000110766
9.87009e-05
-0.000129881
0.00010414
-0.000149552
0.000108565
-0.000169605
0.000111915
-0.00018985
0.000114076
-0.000210074
0.000114904
-0.000230045
0.00011424
-0.000249513
0.000111932
-0.00026822
0.000107846
-0.0002859
0.000101883
-0.000302285
9.3985e-05
-0.000317113
8.41424e-05
-0.000330127
7.23979e-05
-0.000341083
5.88483e-05
-0.000349751
4.36463e-05
-0.000355919
2.69996e-05
-0.000359397
9.17159e-06
-0.000360022
-9.52302e-06
-0.000357664
-2.87172e-05
-0.000352231
-4.7995e-05
-0.000343682
-6.69004e-05
-0.000332031
-8.4943e-05
-0.000317361
-0.00010161
-0.00029983
-0.00011638
-0.000279683
-0.000128746
-0.000257258
-0.000138236
-0.000232984
-0.000144443
-0.000207381
-0.000147059
-0.000181043
-0.000145903
-0.000154621
-0.000140949
-0.000128794
-0.000132355
-0.00010423
-0.000120465
-8.15475e-05
-0.000105813
-6.1274e-05
-8.91033e-05
-4.38121e-05
-7.11811e-05
-2.94115e-05
-5.2994e-05
-1.8152e-05
-3.55514e-05
-9.9391e-06
-1.989e-05
-4.50818e-06
-7.04899e-06
-1.43692e-06
1.94496e-06
-1.62462e-07
6.08557e-06
4.3554e-06
-2.71384e-06
1.1174e-05
-9.75182e-06
3.20551e-05
-2.01851e-05
5.06924e-05
-3.3265e-05
6.69007e-05
-4.84121e-05
8.08057e-05
-6.51927e-05
9.26662e-05
-8.32876e-05
0.000102779
-0.000102458
0.000111412
-0.000122514
0.000118757
-0.000143288
0.000124914
-0.000164615
0.000129892
-0.000186319
0.000133619
-0.000208206
0.000135963
-0.000230063
0.00013676
-0.000251656
0.000135833
-0.000272738
0.000133014
-0.000293052
0.000128159
-0.000312333
0.000121164
-0.000330316
0.000111968
-0.000346737
0.000100564
-0.000361337
8.69981e-05
-0.000373864
7.13751e-05
-0.000384075
5.38568e-05
-0.000391738
3.46633e-05
-0.00039664
1.40734e-05
-0.000398586
-7.5769e-06
-0.000397408
-2.98959e-05
-0.000392969
-5.24333e-05
-0.000385179
-7.46908e-05
-0.000373997
-9.61246e-05
-0.000359451
-0.000116156
-0.000341646
-0.000134186
-0.000320778
-0.000149614
-0.000297147
-0.000161866
-0.000271164
-0.000170426
-0.00024335
-0.000174874
-0.000214329
-0.000174923
-0.000184813
-0.000170466
-0.000155566
-0.000161602
-0.00012737
-0.000148661
-0.000100973
-0.00013221
-7.70405e-05
-0.000113036
-5.61062e-05
-9.21153e-05
-3.85373e-05
-7.05629e-05
-2.4508e-05
-4.95807e-05
-1.39917e-05
-3.04064e-05
-6.76498e-06
-1.42757e-05
-2.42294e-06
-2.39708e-06
-4.01416e-07
4.06404e-06
3.95398e-06
-3.03492e-06
1.42089e-05
-1.08454e-05
3.98657e-05
-2.23563e-05
6.22032e-05
-3.67103e-05
8.12548e-05
-5.32512e-05
9.73466e-05
-7.14942e-05
0.000110909
-9.10878e-05
0.000122373
-0.000111774
0.000132099
-0.000133354
0.000140336
-0.000155653
0.000147214
-0.000178504
0.000152744
-0.000201731
0.000156846
-0.00022514
0.000159372
-0.00024852
0.00016014
-0.000271641
0.000158954
-0.00029426
0.000155633
-0.000316124
0.000150024
-0.000336975
0.000142015
-0.000356549
0.000131543
-0.000374585
0.000118599
-0.00039082
0.000103233
-0.000404995
8.55507e-05
-0.000416858
6.57192e-05
-0.00042616
4.39654e-05
-0.000432664
2.05774e-05
-0.000436147
-4.09383e-06
-0.000436403
-2.96397e-05
-0.000433254
-5.55828e-05
-0.000426554
-8.13904e-05
-0.000416206
-0.000106472
-0.000402173
-0.00013019
-0.000384491
-0.000151867
-0.000363294
-0.000170811
-0.000338823
-0.000186337
-0.000311446
-0.000197803
-0.000281664
-0.000204655
-0.000250114
-0.000206474
-0.00021755
-0.00020303
-0.000184822
-0.00019433
-0.000152829
-0.000180654
-0.000122465
-0.000162573
-9.45575e-05
-0.000140944
-6.9802e-05
-0.000116871
-4.87139e-05
-9.16511e-05
-3.15904e-05
-6.67041e-05
-1.8495e-05
-4.35018e-05
-9.25983e-06
-2.35109e-05
-3.50365e-06
-8.15325e-06
-6.59131e-07
1.21952e-06
3.29485e-06
-3.3234e-06
1.75323e-05
-1.18268e-05
4.83691e-05
-2.43039e-05
7.46803e-05
-3.98005e-05
9.67513e-05
-5.75912e-05
0.000115137
-7.71451e-05
0.000130463
-9.80816e-05
0.000143309
-0.000120126
0.000154143
-0.000143068
0.000163279
-0.000166732
0.000170877
-0.000190949
0.00017696
-0.000215543
0.00018144
-0.000240324
0.000184154
-0.000265086
0.000184901
-0.000289604
0.000183472
-0.000313643
0.000179672
-0.000336956
0.000173337
-0.00035929
0.000164349
-0.000380388
0.00015264
-0.000399989
0.0001382
-0.000417832
0.000121076
-0.000433654
0.000101373
-0.000447195
7.92603e-05
-0.000458196
5.49666e-05
-0.000466403
2.87845e-05
-0.00047157
1.07281e-06
-0.00047346
-2.77497e-05
-0.000471855
-5.71876e-05
-0.000466562
-8.6684e-05
-0.000457421
-0.000115613
-0.000444324
-0.000143286
-0.000427231
-0.00016896
-0.000406192
-0.000191851
-0.000381367
-0.000211162
-0.000353055
-0.000226115
-0.000321708
-0.000236003
-0.000287941
-0.00024024
-0.000252534
-0.000238438
-0.000216402
-0.000230461
-0.000180562
-0.000216494
-0.000146062
-0.000197073
-0.000113914
-0.000173092
-8.50104e-05
-0.000145775
-6.00513e-05
-0.00011661
-3.9493e-05
-8.72624e-05
-2.35188e-05
-5.94759e-05
-1.20374e-05
-3.49923e-05
-4.70173e-06
-1.54889e-05
-9.42355e-07
-2.53985e-06
2.35249e-06
-3.57081e-06
2.11032e-05
-1.26691e-05
5.74674e-05
-2.59775e-05
8.79887e-05
-4.2459e-05
0.000113233
-6.1329e-05
0.000134007
-8.20159e-05
0.00015115
-0.000104113
0.000165406
-0.00012733
0.000177359
-0.000151448
0.000187397
-0.000176289
0.000195718
-0.000201683
0.000202354
-0.000227457
0.000207214
-0.000253427
0.000210123
-0.00027939
0.000210864
-0.000305131
0.000209213
-0.00033042
0.000204962
-0.00035502
0.000197937
-0.000378685
0.000188013
-0.000401162
0.000175118
-0.000422197
0.000159235
-0.000441531
0.000140409
-0.000458903
0.000118745
-0.000474051
9.44089e-05
-0.000486715
6.763e-05
-0.000496632
3.87015e-05
-0.000503542
7.98256e-06
-0.00050719
-2.41007e-05
-0.000507328
-5.70497e-05
-0.000503719
-9.02939e-05
-0.000496146
-0.000123186
-0.000484429
-0.000155003
-0.000468441
-0.000184948
-0.000448133
-0.000212159
-0.000423562
-0.000235732
-0.000394925
-0.000254752
-0.000362589
-0.000268339
-0.000327112
-0.000275717
-0.000289258
-0.000276292
-0.000249983
-0.000269736
-0.000210401
-0.000256076
-0.00017172
-0.000235754
-0.000135155
-0.000209657
-0.000101825
-0.000179105
-7.26592e-05
-0.000145776
-4.83181e-05
-0.000111604
-2.91441e-05
-7.86499e-05
-1.51515e-05
-4.89849e-05
-6.04507e-06
-2.45953e-05
-1.25958e-06
-7.32534e-06
1.09291e-06
-3.76903e-06
2.48722e-05
-1.33468e-05
6.70452e-05
-2.73294e-05
0.000101971
-4.46145e-05
0.000130518
-6.43687e-05
0.000153762
-8.5986e-05
0.000172767
-0.000109036
0.000188457
-0.000133215
0.000201538
-0.000158297
0.000212479
-0.000184098
0.000221519
-0.000210451
0.000228707
-0.000237185
0.000233948
-0.000264119
0.000237058
-0.00029106
0.000237805
-0.000317798
0.000235951
-0.000344113
0.000231276
-0.000369773
0.000223597
-0.000394541
0.000212781
-0.000418173
0.000198749
-0.00044042
0.000181482
-0.000461032
0.000161021
-0.000479755
0.000137468
-0.000496336
0.00011099
-0.00051052
8.18137e-05
-0.00052205
5.02314e-05
-0.000530667
1.65993e-05
-0.000536108
-1.86592e-05
-0.000538109
-5.50493e-05
-0.0005364
-9.20027e-05
-0.000530718
-0.000128868
-0.000520812
-0.000164908
-0.000506467
-0.000199293
-0.000487523
-0.000231103
-0.000463913
-0.000259342
-0.000435702
-0.000282964
-0.000403129
-0.000300912
-0.000366649
-0.000312197
-0.000326963
-0.000315978
-0.000285023
-0.000311677
-0.000242009
-0.00029909
-0.000199273
-0.00027849
-0.000158241
-0.00025069
-0.00012029
-0.000217055
-8.66254e-05
-0.000179441
-5.81621e-05
-0.000140067
-3.54533e-05
-0.000101359
-1.86596e-05
-6.57786e-05
-7.56445e-06
-3.56905e-05
-1.62031e-06
-1.32695e-05
-5.27393e-07
-3.91069e-06
2.87829e-05
-1.38369e-05
7.69715e-05
-2.83171e-05
0.000116451
-4.62029e-05
0.000148404
-6.66244e-05
0.000174183
-8.89474e-05
0.00019509
-0.000112722
0.000212231
-0.000137629
0.000226445
-0.000163435
0.000238285
-0.000189954
0.000248038
-0.000217016
0.000255769
-0.000244455
0.000261387
-0.000272093
0.000264697
-0.000299743
0.000265455
-0.000327203
0.000263411
-0.000354259
0.000258332
-0.000380688
0.000250027
-0.000406261
0.000238354
-0.000430743
0.000223231
-0.000453895
0.000204635
-0.000475481
0.000182606
-0.000495261
0.000157249
-0.000512999
0.000128728
-0.000528459
9.72733e-05
-0.000541402
6.31742e-05
-0.000551584
2.67816e-05
-0.000558752
-1.14916e-05
-0.00056264
-5.11611e-05
-0.000562964
-9.16782e-05
-0.000559426
-0.000132407
-0.000551716
-0.000172618
-0.000539533
-0.000211476
-0.000522602
-0.000248033
-0.000500718
-0.000281226
-0.000473787
-0.000309895
-0.000441881
-0.000332818
-0.000405301
-0.000348777
-0.000364624
-0.000356654
-0.000320738
-0.000355563
-0.000274839
-0.000344989
-0.000228389
-0.00032494
-0.000183015
-0.000296064
-0.000140375
-0.000259695
-0.000101993
-0.000217823
-6.90993e-05
-0.00017296
-4.25206e-05
-0.000127937
-2.26175e-05
-8.56817e-05
-9.29085e-06
-4.90172e-05
-2.03436e-06
-2.0526e-05
-2.56175e-06
-3.98958e-06
3.27725e-05
-1.41201e-05
8.7102e-05
-2.89045e-05
0.000131236
-4.71701e-05
0.000166669
-6.80232e-05
0.000195036
-9.08082e-05
0.000217875
-0.000115057
0.00023648
-0.000140438
0.000251826
-0.000166709
0.000264556
-0.000193676
0.000275006
-0.000221172
0.000283265
-0.000249029
0.000289244
-0.000277075
0.000292743
-0.000305125
0.000293506
-0.000332985
0.000291271
-0.000360447
0.000285794
-0.000387297
0.000276876
-0.000413313
0.00026437
-0.000438272
0.00024819
-0.000461951
0.000228314
-0.000484129
0.000204785
-0.00050459
0.00017771
-0.000523125
0.000147263
-0.000539527
0.000113675
-0.000553588
7.72351e-05
-0.000565096
3.82897e-05
-0.000573819
-2.76809e-06
-0.000579516
-4.54641e-05
-0.000581902
-8.92922e-05
-0.000580662
-0.000133647
-0.000575444
-0.000177835
-0.000565874
-0.000221047
-0.000551569
-0.000262338
-0.000532178
-0.000300618
-0.000507429
-0.000334644
-0.000477198
-0.00036305
-0.000441576
-0.000384398
-0.000400956
-0.000397274
-0.000356087
-0.000400432
-0.000308109
-0.000392966
-0.000258535
-0.000374514
-0.000209166
-0.000345433
-0.00016194
-0.000306921
-0.000118736
-0.000261027
-8.11655e-05
-0.00021053
-5.04013e-05
-0.000158701
-2.70731e-05
-0.00010901
-1.1253e-05
-6.48373e-05
-2.51115e-06
-2.92678e-05
-5.07291e-06
-4.00108e-06
3.67735e-05
-1.41817e-05
9.72826e-05
-2.90641e-05
0.000146118
-4.74743e-05
0.000185079
-6.85086e-05
0.000216071
-9.14966e-05
0.000240863
-0.000115955
0.000260938
-0.000141539
0.00027741
-0.000167994
0.000291012
-0.000195123
0.000302134
-0.000222752
0.000310894
-0.000250716
0.000317207
-0.000278842
0.000320869
-0.000306951
0.000321615
-0.000334853
0.000319172
-0.000362346
0.000313287
-0.000389224
0.000303754
-0.000415275
0.000290422
-0.000440291
0.000273206
-0.000464066
0.000252089
-0.000486403
0.000227121
-0.000507114
0.000198422
-0.000526024
0.000166173
-0.000542966
0.000130617
-0.000557776
9.20453e-05
-0.000570285
5.07982e-05
-0.000580308
7.25462e-06
-0.000587627
-3.81446e-05
-0.000591988
-8.4931e-05
-0.00059308
-0.000132556
-0.00059053
-0.000180385
-0.000583909
-0.000227668
-0.000572744
-0.000273504
-0.000556545
-0.000316816
-0.000534861
-0.000356328
-0.000507341
-0.000390569
-0.000473833
-0.000417906
-0.000434476
-0.000436631
-0.000389802
-0.000445106
-0.000340806
-0.000441962
-0.000288971
-0.00042635
-0.000236206
-0.000398197
-0.00018471
-0.000358418
-0.000136738
-0.000308999
-9.43418e-05
-0.000252926
-5.91215e-05
-0.000193922
-3.20611e-05
-0.00013607
-1.34748e-05
-8.34236e-05
-3.0593e-06
-3.96833e-05
-8.1322e-06
-3.94242e-06
4.0716e-05
-1.40126e-05
0.000107353
-2.87786e-05
0.000160884
-4.70886e-05
0.000203389
-6.80431e-05
0.000237025
-9.09643e-05
0.000263784
-0.000115356
0.00028533
-0.000140858
0.000302912
-0.000167207
0.00031736
-0.000194194
0.000329121
-0.000221641
0.000338341
-0.00024938
0.000344946
-0.00027724
0.000348729
-0.000305045
0.00034942
-0.000332606
0.000346734
-0.000359732
0.000340412
-0.000386221
0.000330244
-0.000411878
0.000316078
-0.000436506
0.000297835
-0.000459924
0.000275506
-0.00048196
0.000249158
-0.000502464
0.000218925
-0.0005213
0.000185009
-0.000538347
0.000147664
-0.000553493
0.000107191
-0.000566622
6.39278e-05
-0.000577606
1.82381e-05
-0.000586274
-2.94766e-05
-0.000592415
-7.87903e-05
-0.000595743
-0.000129228
-0.000595893
-0.000180236
-0.000592407
-0.000231153
-0.000584746
-0.000281165
-0.000572306
-0.000329256
-0.000554461
-0.000374173
-0.000530636
-0.000414394
-0.000500402
-0.00044814
-0.000463596
-0.000473438
-0.000420452
-0.000488251
-0.000371721
-0.000490693
-0.000318748
-0.000479323
-0.000263464
-0.000453482
-0.000208264
-0.000413617
-0.000155778
-0.000361486
-0.000108541
-0.000300163
-6.86692e-05
-0.000233794
-3.7598e-05
-0.000167142
-1.59734e-05
-0.000105048
-3.68591e-06
-5.19707e-05
-1.18181e-05
-3.81303e-06
4.4529e-05
-1.36105e-05
0.00011715
-2.80419e-05
0.000175316
-4.60025e-05
0.00022135
-6.66112e-05
0.000257634
-8.91899e-05
0.000286363
-0.000113232
0.000309372
-0.000138363
0.000328044
-0.000164305
0.000343302
-0.000190839
0.000355655
-0.000217779
0.000365282
-0.000244955
0.000372121
-0.000272194
0.000375969
-0.000299322
0.000376547
-0.000326155
0.000373568
-0.000352508
0.000366765
-0.000378192
0.000355927
-0.000403021
0.000340908
-0.000426822
0.000321636
-0.000449436
0.00029812
-0.000470723
0.000270445
-0.000490571
0.000238773
-0.000508888
0.000203326
-0.000525604
0.000164381
-0.000540663
0.000122251
-0.00055401
7.72744e-05
-0.000565575
2.98033e-05
-0.000575252
-1.98002e-05
-0.000582885
-7.11573e-05
-0.000588236
-0.000123876
-0.000590969
-0.000177503
-0.000590633
-0.00023149
-0.000586653
-0.000285145
-0.000578342
-0.000337567
-0.000564934
-0.000387582
-0.00054564
-0.000433688
-0.000519749
-0.00047403
-0.000486763
-0.000506424
-0.000446552
-0.000528462
-0.000399522
-0.000537722
-0.000346762
-0.000532083
-0.000290097
-0.000510147
-0.00023203
-0.000471684
-0.000175516
-0.000418
-0.0001236
-0.00035208
-7.8987e-05
-0.000278407
-4.36776e-05
-0.000202451
-1.87571e-05
-0.000129969
-4.39619e-06
-6.63317e-05
-1.62143e-05
-3.61463e-06
4.81436e-05
-1.29796e-05
0.000126515
-2.68608e-05
0.000189197
-4.42237e-05
0.000238713
-6.42207e-05
0.000277631
-8.61808e-05
0.000308323
-0.000109589
0.00033278
-0.000134058
0.000352513
-0.000159294
0.000368537
-0.000185064
0.000381426
-0.000211175
0.000391392
-0.000237449
0.000398396
-0.000263715
0.000402235
-0.0002898
0.000402632
-0.000315526
0.000399294
-0.000340716
0.000391955
-0.000365193
0.000380404
-0.000388789
0.000364504
-0.000411352
0.000344199
-0.00043275
0.000319517
-0.000452878
0.000290574
-0.000471662
0.000257557
-0.000489056
0.00022072
-0.000505041
0.000180366
-0.000519617
0.000136826
-0.000532789
9.04464e-05
-0.000544552
4.15666e-05
-0.000554863
-9.48896e-06
-0.000563641
-6.238e-05
-0.000570705
-0.000116812
-0.000575775
-0.000172433
-0.000578431
-0.000228833
-0.000578106
-0.00028547
-0.000574071
-0.000341601
-0.000565459
-0.000396194
-0.000551305
-0.000447842
-0.000530638
-0.000494697
-0.000502613
-0.000534448
-0.000466694
-0.000564382
-0.000422859
-0.000581556
-0.000371814
-0.000583128
-0.000315138
-0.000566823
-0.000255303
-0.00053152
-0.000195501
-0.000477801
-0.000139269
-0.000408311
-8.9967e-05
-0.000327709
-5.02683e-05
-0.00024215
-2.18242e-05
-0.000158413
-5.1931e-06
-8.29628e-05
-2.14074e-05
-3.35135e-06
5.1495e-05
-1.21317e-05
0.000135296
-2.52547e-05
0.00020232
-4.17789e-05
0.000255237
-6.09042e-05
0.000296756
-8.19751e-05
0.000329394
-0.000104472
0.000355278
-0.000127994
0.000376034
-0.000152229
0.000392772
-0.000176933
0.000406129
-0.0002019
0.000416359
-0.000226948
0.000423444
-0.000251905
0.000427192
-0.0002766
0.000427328
-0.000300865
0.000423558
-0.000324531
0.000415621
-0.000347438
0.000403311
-0.000369438
0.000386504
-0.000390404
0.000365164
-0.000410232
0.000339346
-0.000428853
0.000309195
-0.000446232
0.000274935
-0.000462365
0.000236853
-0.000477283
0.000195284
-0.000491037
0.00015058
-0.000503688
0.000103098
-0.000515297
5.3175e-05
-0.000525875
1.0891e-06
-0.000535427
-5.28275e-05
-0.000543837
-0.000108402
-0.000550893
-0.000165377
-0.000556242
-0.000223485
-0.000559353
-0.000282358
-0.000559507
-0.000341448
-0.000555786
-0.000399916
-0.000547102
-0.000456526
-0.000532268
-0.000509531
-0.000510118
-0.000556598
-0.000479694
-0.000594806
-0.000440489
-0.000620762
-0.000392715
-0.000630901
-0.000337553
-0.000621985
-0.000277277
-0.000591796
-0.00021518
-0.000539898
-0.000155224
-0.000468267
-0.00010145
-0.000381483
-5.73105e-05
-0.000286289
-2.51615e-05
-0.000190562
-6.07704e-06
-0.000102047
-2.74844e-05
-3.02962e-06
5.45246e-05
-1.10854e-05
0.000143351
-2.32563e-05
0.000214491
-3.87138e-05
0.000270695
-5.67195e-05
0.000314762
-7.66418e-05
0.000349316
-9.79609e-05
0.000376597
-0.000120262
0.000398335
-0.000143217
0.000415728
-0.000166566
0.000429478
-0.000190093
0.000439887
-0.000213612
0.000446962
-0.000236948
0.000450528
-0.000259938
0.000450318
-0.000282423
0.000446043
-0.000304249
0.000437447
-0.000325275
0.000424337
-0.000345376
0.000406605
-0.000364451
0.000384239
-0.000382429
0.000357324
-0.000399274
0.00032604
-0.000414988
0.000290648
-0.000429608
0.000251474
-0.000443205
0.000208881
-0.000455877
0.000163252
-0.000467733
0.000114954
-0.000478881
6.43225e-05
-0.000489427
1.16356e-05
-0.000499388
-4.28666e-05
-0.000508755
-9.90345e-05
-0.000517395
-0.000156738
-0.00052503
-0.000215849
-0.000531206
-0.000276182
-0.000535252
-0.000337402
-0.000536257
-0.00039891
-0.000533076
-0.000459707
-0.000524368
-0.000518239
-0.000508699
-0.000572267
-0.000484714
-0.00061879
-0.000451398
-0.000654079
-0.000408389
-0.00067391
-0.000356325
-0.000674049
-0.000297101
-0.00065102
-0.000233928
-0.000603071
-0.000171069
-0.000531126
-0.000113227
-0.000439326
-6.47176e-05
-0.000334798
-2.87446e-05
-0.000226535
-7.04575e-06
-0.000123746
-3.45302e-05
-2.65805e-06
5.71826e-05
-9.86631e-06
0.00015056
-2.09105e-05
0.000225535
-3.50926e-05
0.000284877
-5.17489e-05
0.000331418
-7.028e-05
0.000367847
-9.01707e-05
0.000396487
-0.000110995
0.000419159
-0.000132409
0.000437142
-0.000154138
0.000451206
-0.000175955
0.000461704
-0.000197668
0.000468676
-0.000219107
0.000471968
-0.000240116
0.000471327
-0.000260548
0.000466475
-0.00028027
0.000457168
-0.000299161
0.000443229
-0.000317125