/*--------------------------------*- C++ -*----------------------------------*\
| =========                 |                                                 |
| \\      /  F ield         | OpenFOAM: The Open Source CFD Toolbox           |
|  \\    /   O peration     | Version:  2312                                  |
|   \\  /    A nd           | Website:  www.openfoam.com                      |
|    \\/     M anipulation  |                                                 |
\*---------------------------------------------------------------------------*/
FoamFile
{
    version     2.0;
    format      ascii;
    arch        "LSB;label=32;scalar=64";
    class       surfaceScalarField;
    location    "50";
    object      phi;
}
// * * * * * * * * * * * * * * * * * * * * * * * * * * * * * * * * * * * * * //

dimensions      [0 3 -1 0 0 0 0];

oriented        oriented;

internalField   nonuniform List<scalar> 
5100
(
1.88023e-07
-1.88745e-07
4.03309e-07
-2.15286e-07
4.69551e-07
-6.6242e-08
3.24587e-07
1.44964e-07
-3.22261e-08
3.56813e-07
-5.79591e-07
5.47365e-07
-1.29113e-06
7.11539e-07
-2.14063e-06
8.49503e-07
-3.10648e-06
9.65845e-07
-4.17214e-06
1.06567e-06
-5.3251e-06
1.15296e-06
-6.5551e-06
1.23e-06
-7.85235e-06
1.29725e-06
-9.20586e-06
1.35351e-06
-1.06021e-05
1.39621e-06
-1.20239e-05
1.42182e-06
-1.34501e-05
1.42622e-06
-1.48552e-05
1.40508e-06
-1.62095e-05
1.35425e-06
-1.74795e-05
1.27008e-06
-1.86293e-05
1.14975e-06
-1.96209e-05
9.91625e-07
-2.04164e-05
7.95526e-07
-2.09794e-05
5.62993e-07
-2.12769e-05
2.975e-07
-2.12823e-05
5.36362e-09
-2.09744e-05
-3.07921e-07
-2.03437e-05
-6.30712e-07
-1.9391e-05
-9.52654e-07
-1.81297e-05
-1.26133e-06
-1.65859e-05
-1.54378e-06
-1.47987e-05
-1.78716e-06
-1.28191e-05
-1.97963e-06
-1.0708e-05
-2.11113e-06
-8.53375e-06
-2.17421e-06
-6.3691e-06
-2.16465e-06
-4.28715e-06
-2.08195e-06
-2.35769e-06
-1.92946e-06
-6.43415e-07
-1.71427e-06
8.03528e-07
-1.44694e-06
1.9437e-06
-1.14017e-06
2.75229e-06
-8.08593e-07
3.22056e-06
-4.68261e-07
3.35618e-06
-1.35626e-07
3.18368e-06
1.72502e-07
2.74648e-06
4.37202e-07
2.10981e-06
6.36673e-07
1.36697e-06
7.42834e-07
6.49346e-07
7.17626e-07
1.36482e-07
5.12867e-07
1.36484e-07
2.21842e-07
-4.10587e-07
3.20267e-07
-3.13711e-07
3.86171e-08
2.15408e-07
-7.22032e-07
9.05614e-07
-1.98297e-06
1.61775e-06
-3.71336e-06
2.27775e-06
-5.86153e-06
2.85971e-06
-8.37357e-06
3.36154e-06
-1.11999e-05
3.79222e-06
-1.42978e-05
4.16357e-06
-1.76302e-05
4.48531e-06
-2.11629e-05
4.76271e-06
-2.48614e-05
4.99578e-06
-2.86875e-05
5.17957e-06
-3.25963e-05
5.30502e-06
-3.65347e-05
5.36017e-06
-4.04399e-05
5.33146e-06
-4.42399e-05
5.20505e-06
-4.78537e-05
4.96805e-06
-5.11934e-05
4.60979e-06
-5.41665e-05
4.12286e-06
-5.6679e-05
3.50419e-06
-5.86394e-05
2.7559e-06
-5.99625e-05
1.88604e-06
-6.05739e-05
9.08989e-07
-6.04163e-05
-1.52296e-07
-5.94493e-05
-1.27491e-06
-5.76586e-05
-2.42141e-06
-5.50561e-05
-3.55511e-06
-5.16827e-05
-4.63477e-06
-4.76087e-05
-5.61783e-06
-4.29331e-05
-6.46274e-06
-3.77813e-05
-7.13136e-06
-3.2301e-05
-7.59153e-06
-2.66558e-05
-7.8194e-06
-2.1019e-05
-7.8014e-06
-1.55654e-05
-7.53562e-06
-1.04624e-05
-7.0324e-06
-5.86255e-06
-6.31413e-06
-1.8954e-06
-5.41409e-06
1.3391e-06
-4.37467e-06
3.77552e-06
-3.24502e-06
5.38623e-06
-2.07897e-06
6.18464e-06
-9.34035e-07
6.22783e-06
1.29311e-07
5.61753e-06
1.0475e-06
4.50597e-06
1.74823e-06
3.09948e-06
2.14932e-06
1.66224e-06
2.15487e-06
5.10739e-07
1.66436e-06
6.47224e-07
6.58363e-08
-4.76423e-07
-2.52814e-07
4.93958e-09
-1.183e-06
1.14559e-06
-2.82679e-06
2.5494e-06
-5.18993e-06
3.98089e-06
-8.2311e-06
5.31893e-06
-1.18848e-05
6.5134e-06
-1.60793e-05
7.55602e-06
-2.07456e-05
8.45858e-06
-2.58206e-05
9.23853e-06
-3.12455e-05
9.9102e-06
-3.6963e-05
1.04802e-05
-4.29129e-05
1.09458e-05
-4.90285e-05
1.12952e-05
-5.5233e-05
1.15095e-05
-6.14375e-05
1.15646e-05
-6.75402e-05
1.14342e-05
-7.34271e-05
1.10919e-05
-7.89734e-05
1.05143e-05
-8.40466e-05
9.68304e-06
-8.85106e-05
8.5868e-06
-9.22299e-05
7.22349e-06
-9.50756e-05
5.60162e-06
-9.6931e-05
3.74145e-06
-9.76978e-05
1.67577e-06
-9.73006e-05
-5.49447e-07
-9.56947e-05
-2.8808e-06
-9.28685e-05
-5.24766e-06
-8.8848e-05
-7.57563e-06
-8.36987e-05
-9.78405e-06
-7.7526e-05
-1.17905e-05
-7.04737e-05
-1.3515e-05
-6.27206e-05
-1.48845e-05
-5.4475e-05
-1.58371e-05
-4.59674e-05
-1.6327e-05
-3.74415e-05
-1.63273e-05
-2.9144e-05
-1.58331e-05
-2.13134e-05
-1.4863e-05
-1.41691e-05
-1.34585e-05
-7.90054e-06
-1.16826e-05
-2.65808e-06
-9.61713e-06
1.45547e-06
-7.35857e-06
4.39095e-06
-5.01445e-06
6.15681e-06
-2.69989e-06
6.82301e-06
-5.3689e-07
6.52444e-06
1.34608e-06
5.46181e-06
2.81087e-06
3.90463e-06
3.7065e-06
2.19102e-06
3.86848e-06
7.25257e-07
3.13012e-06
1.37248e-06
-1.90397e-07
-2.86026e-07
-1.09851e-06
9.13049e-07
-2.89524e-06
2.94233e-06
-5.6213e-06
5.27546e-06
-9.25473e-06
7.61432e-06
-1.37326e-05
9.79676e-06
-1.89728e-05
1.17536e-05
-2.48888e-05
1.3472e-05
-3.13966e-05
1.49663e-05
-3.84162e-05
1.62582e-05
-4.58705e-05
1.73645e-05
-5.36808e-05
1.82905e-05
-6.17625e-05
1.90275e-05
-7.00212e-05
1.95539e-05
-7.83494e-05
1.98377e-05
-8.66248e-05
1.984e-05
-9.47101e-05
1.95196e-05
-0.000102455
1.88366e-05
-0.000109697
1.77569e-05
-0.00011627
1.62555e-05
-0.000122003
1.43197e-05
-0.000126731
1.19517e-05
-0.0001303
9.17104e-06
-0.000132574
6.01545e-06
-0.000133441
2.54202e-06
-0.000132816
-1.17365e-06
-0.000130656
-5.04109e-06
-0.000126954
-8.94986e-06
-0.000121748
-1.27814e-05
-0.000115123
-1.64092e-05
-0.000107209
-1.97047e-05
-9.81803e-05
-2.25436e-05
-8.82526e-05
-2.48122e-05
-7.76759e-05
-2.64138e-05
-6.67273e-05
-2.72755e-05
-5.57011e-05
-2.73535e-05
-4.48971e-05
-2.66371e-05
-3.46085e-05
-2.51517e-05
-2.51083e-05
-2.29586e-05
-1.6637e-05
-2.01539e-05
-9.39025e-06
-1.68639e-05
-3.50837e-06
-1.32404e-05
9.32106e-07
-9.45493e-06
3.9254e-06
-5.69319e-06
5.53865e-06
-2.15014e-06
5.91843e-06
9.66292e-07
5.28878e-06
3.44051e-06
3.95325e-06
5.04203e-06
2.29523e-06
5.52651e-06
7.81823e-07
4.64353e-06
2.1543e-06
-4.88536e-07
2.0251e-07
-2.11143e-06
2.53595e-06
-4.91583e-06
5.74673e-06
-8.87156e-06
9.2312e-06
-1.3906e-05
1.26487e-05
-1.99237e-05
1.58145e-05
-2.68213e-05
1.86512e-05
-3.44964e-05
2.11472e-05
-4.28513e-05
2.33212e-05
-5.1792e-05
2.51989e-05
-6.1225e-05
2.67975e-05
-7.10525e-05
2.8118e-05
-8.11677e-05
2.91427e-05
-9.14508e-05
2.9837e-05
-0.000101766
3.01531e-05
-0.000111962
3.00356e-05
-0.00012187
2.94274e-05
-0.000131309
2.82754e-05
-0.000140087
2.65357e-05
-0.000148011
2.41789e-05
-0.000154885
2.11938e-05
-0.000160524
1.75908e-05
-0.000164757
1.34042e-05
-0.000167435
8.69352e-06
-0.000168437
3.54429e-06
-0.000167677
-1.93374e-06
-0.000165108
-7.60995e-06
-0.000160728
-1.333e-05
-0.000154582
-1.89277e-05
-0.000146764
-2.42272e-05
-0.000137418
-2.90502e-05
-0.000126738
-3.32238e-05
-0.000114961
-3.65892e-05
-0.000102365
-3.901e-05
-8.92596e-05
-4.03811e-05
-7.59765e-05
-4.06365e-05
-6.28582e-05
-3.97554e-05
-5.02437e-05
-3.77662e-05
-3.84539e-05
-3.47484e-05
-2.77775e-05
-3.08304e-05
-1.84555e-05
-2.61859e-05
-1.06692e-05
-2.10267e-05
-4.52887e-06
-1.55953e-05
-6.5791e-08
-1.01563e-05
2.7761e-06
-4.99202e-06
4.13665e-06
-3.94261e-07
4.24696e-06
3.3302e-06
3.42708e-06
5.86191e-06
2.0871e-06
6.86649e-06
7.33365e-07
5.99726e-06
2.88767e-06
-8.12353e-07
1.01486e-06
-3.21801e-06
4.9416e-06
-7.12554e-06
9.65426e-06
-1.24113e-05
1.45169e-05
-1.89384e-05
1.91759e-05
-2.65697e-05
2.34458e-05
-3.51751e-05
2.72566e-05
-4.46344e-05
3.06064e-05
-5.48361e-05
3.35229e-05
-6.56735e-05
3.60363e-05
-7.70389e-05
3.81629e-05
-8.88178e-05
3.98968e-05
-0.000100884
4.12086e-05
-0.000113094
4.20477e-05
-0.00012529
4.23489e-05
-0.000137294
4.20392e-05
-0.000148912
4.10454e-05
-0.000159938
3.9302e-05
-0.00017016
3.67575e-05
-0.000179362
3.33805e-05
-0.000187332
2.9164e-05
-0.000193871
2.41297e-05
-0.000198796
1.83294e-05
-0.000201949
1.18471e-05
-0.000203204
4.79865e-06
-0.000202467
-2.67015e-06
-0.00019969
-1.03877e-05
-0.000194865
-1.81543e-05
-0.000188038
-2.57549e-05
-0.000179303
-3.29627e-05
-0.000168806
-3.9547e-05
-0.000156747
-4.52831e-05
-0.000143374
-4.99622e-05
-0.000128981
-5.34028e-05
-0.000113901
-5.54611e-05
-9.84952e-05
-5.60419e-05
-8.31434e-05
-5.51072e-05
-6.82272e-05
-5.26825e-05
-5.41151e-05
-4.88604e-05
-4.11457e-05
-4.37997e-05
-2.96103e-05
-3.77213e-05
-1.97373e-05
-3.08998e-05
-1.16784e-05
-2.36541e-05
-5.49863e-06
-1.63361e-05
-1.16961e-06
-9.32104e-06
1.4362e-06
-3.00007e-06
2.54414e-06
2.22226e-06
2.47814e-06
5.92791e-06
1.66119e-06
7.68344e-06
6.19129e-07
7.03932e-06
3.5068e-06
-1.15023e-06
2.16509e-06
-4.37686e-06
8.16823e-06
-9.4428e-06
1.47202e-05
-1.61181e-05
2.11922e-05
-2.41921e-05
2.72498e-05
-3.34786e-05
3.27323e-05
-4.38165e-05
3.75945e-05
-5.50658e-05
4.18557e-05
-6.7101e-05
4.55582e-05
-7.98035e-05
4.87388e-05
-9.30532e-05
5.14125e-05
-0.000106721
5.35648e-05
-0.000120664
5.51518e-05
-0.000134722
5.61056e-05
-0.000148715
5.63419e-05
-0.000162446
5.57697e-05
-0.000175701
5.43006e-05
-0.000188257
5.18582e-05
-0.000199885
4.83852e-05
-0.000210355
4.38503e-05
-0.000219444
3.82532e-05
-0.000226942
3.16282e-05
-0.000232659
2.40462e-05
-0.000236428
1.56161e-05
-0.000238113
6.48382e-06
-0.000237614
-3.16916e-06
-0.00023487
-1.31318e-05
-0.000229865
-2.31592e-05
-0.000222632
-3.29884e-05
-0.000213254
-4.23406e-05
-0.00020187
-5.0931e-05
-0.000188674
-5.84796e-05
-0.000173913
-6.47225e-05
-0.00015789
-6.94259e-05
-0.000140952
-7.23991e-05
-0.000123486
-7.35081e-05
-0.000105905
-7.26883e-05
-8.86343e-05
-6.99532e-05
-7.20934e-05
-6.54013e-05
-5.66766e-05
-5.92165e-05
-4.2733e-05
-5.16648e-05
-3.05476e-05
-4.30852e-05
-2.03242e-05
-3.38775e-05
-1.21724e-05
-2.44879e-05
-6.09856e-06
-1.53949e-05
-2.00081e-06
-7.09783e-06
3.32011e-07
-1.10553e-07
1.21911e-06
5.04082e-06
1.0861e-06
7.81644e-06
4.64857e-07
7.66057e-06
3.97165e-06
-1.49381e-06
3.65891e-06
-5.55858e-06
1.2233e-05
-1.18066e-05
2.09682e-05
-1.98956e-05
2.92812e-05
-2.95352e-05
3.68895e-05
-4.04863e-05
4.36834e-05
-5.25537e-05
4.96619e-05
-6.55761e-05
5.48782e-05
-7.94141e-05
5.93962e-05
-9.3938e-05
6.32627e-05
-0.000109017
6.64915e-05
-0.000124511
6.90583e-05
-0.000140262
7.09037e-05
-0.000156097
7.19406e-05
-0.000171821
7.20656e-05
-0.000187221
7.11699e-05
-0.000202072
6.9151e-05
-0.000216136
6.59228e-05
-0.000229175
6.14241e-05
-0.00024095
5.56254e-05
-0.000251231
4.85341e-05
-0.0002598
4.01973e-05
-0.000266459
3.07045e-05
-0.00027103
2.01877e-05
-0.000273368
8.82125e-06
-0.000273356
-3.18041e-06
-0.000270918
-1.55702e-05
-0.000266017
-2.80599e-05
-0.000258666
-4.03401e-05
-0.000248926
-5.20805e-05
-0.000236916
-6.29408e-05
-0.000222814
-7.25817e-05
-0.000206858
-8.06786e-05
-0.000189347
-8.6937e-05
-0.000170637
-9.11087e-05
-0.000151136
-9.30096e-05
-0.000131289
-9.25353e-05
-0.000111566
-8.96756e-05
-9.24438e-05
-8.45237e-05
-7.43797e-05
-7.72807e-05
-5.77911e-05
-6.82534e-05
-4.30315e-05
-5.78448e-05
-3.03693e-05
-4.65397e-05
-1.99712e-05
-3.4886e-05
-1.18902e-05
-2.3476e-05
-6.05903e-06
-1.2929e-05
-2.2897e-06
-3.87988e-06
-2.75058e-07
3.02618e-06
4.0678e-07
7.1346e-06
2.86497e-07
7.78085e-06
4.25815e-06
-1.83686e-06
5.49577e-06
-6.7386e-06
1.71347e-05
-1.41655e-05
2.83951e-05
-2.36606e-05
3.87763e-05
-3.48521e-05
4.8081e-05
-4.74457e-05
5.6277e-05
-6.12112e-05
6.34274e-05
-7.59656e-05
6.96326e-05
-9.15557e-05
7.49863e-05
-0.000107842
7.95489e-05
-0.000124684
8.33341e-05
-0.000141934
8.63078e-05
-0.000159424
8.83941e-05
-0.000176971
8.94867e-05
-0.000194368
8.94628e-05
-0.000211395
8.81967e-05
-0.000227817
8.5573e-05
-0.000243391
8.14974e-05
-0.000257873
7.59059e-05
-0.000271019
6.87714e-05
-0.000282593
6.01085e-05
-0.000292372
4.99763e-05
-0.000300148
3.84805e-05
-0.000305734
2.57731e-05
-0.000308965
1.20527e-05
-0.000309709
-2.43611e-06
-0.000307863
-1.7417e-05
-0.000303363
-3.25598e-05
-0.000296191
-4.75119e-05
-0.000286379
-6.18928e-05
-0.000274014
-7.53056e-05
-0.000259247
-8.73487e-05
-0.000242295
-9.76302e-05
-0.000223446
-0.000105786
-0.000203056
-0.000111499
-0.000181546
-0.00011452
-0.000159392
-0.000114689
-0.000137111
-0.000111957
-0.000115239
-0.000106396
-9.43067e-05
-9.82132e-05
-7.48117e-05
-8.77484e-05
-5.71906e-05
-7.54659e-05
-4.17918e-05
-6.19384e-05
-2.8854e-05
-4.78238e-05
-1.84904e-05
-3.38396e-05
-1.06801e-05
-2.07392e-05
-5.2666e-06
-9.2934e-06
-1.96113e-06
-2.7929e-07
-3.50558e-07
5.52403e-06
9.28328e-08
7.33746e-06
4.35098e-06
-2.17325e-06
7.66902e-06
-7.8938e-06
2.28553e-05
-1.64715e-05
3.69728e-05
-2.73363e-05
4.96411e-05
-4.00352e-05
6.07799e-05
-5.42194e-05
7.04611e-05
-6.96237e-05
7.88318e-05
-8.6044e-05
8.60529e-05
-0.000103314
9.22563e-05
-0.000121285
9.75202e-05
-0.000139812
0.00010186
-0.000158737
0.000105233
-0.000177889
0.000107546
-0.000197077
0.000108675
-0.000216091
0.000108477
-0.000234705
0.00010681
-0.000252681
0.000103549
-0.000269774
9.85909e-05
-0.000285738
9.18698e-05
-0.000300327
8.33606e-05
-0.000313303
7.30837e-05
-0.000324434
6.11078e-05
-0.000333505
4.75511e-05
-0.000340313
3.25816e-05
-0.000344677
1.64164e-05
-0.000346441
-6.71858e-07
-0.000345469
-1.83891e-05
-0.000341668
-3.63613e-05
-0.00033498
-5.41998e-05
-0.000325397
-7.14757e-05
-0.000312967
-8.77356e-05
-0.000297802
-0.000102513
-0.000280088
-0.000115344
-0.000260089
-0.000125786
-0.000238149
-0.000133438
-0.000214696
-0.000137973
-0.000190229
-0.000139156
-0.00016531
-0.000136876
-0.000140537
-0.000131169
-0.000116522
-0.000122228
-9.38564e-05
-0.000110414
-7.30756e-05
-9.62467e-05
-5.46263e-05
-8.03877e-05
-3.88378e-05
-6.36123e-05
-2.59004e-05
-4.6777e-05
-1.58536e-05
-3.07861e-05
-8.58276e-06
-1.65642e-05
-3.82442e-06
-5.03763e-06
-1.17646e-06
2.87607e-06
-1.12979e-07
6.27398e-06
4.23801e-06
-2.4964e-06
1.01654e-05
-9.00082e-06
2.93597e-05
-1.86779e-05
4.66499e-05
-3.08484e-05
6.18117e-05
-4.49815e-05
7.49129e-05
-6.06756e-05
8.61552e-05
-7.76324e-05
9.57885e-05
-9.56272e-05
0.000104048
-0.000114482
0.000111111
-0.000134041
0.000117079
-0.000154154
0.000121973
-0.00017466
0.000125739
-0.000195385
0.000128271
-0.000216135
0.000129425
-0.000236698
0.00012904
-0.00025685
0.000126962
-0.000276353
0.000123052
-0.000294964
0.000117202
-0.000312437
0.000109343
-0.000328526
9.94498e-05
-0.00034299
8.75479e-05
-0.000355594
7.37118e-05
-0.000366111
5.80681e-05
-0.000374326
4.07958e-05
-0.000380036
2.21264e-05
-0.000383053
2.34581e-06
-0.000383223
-1.82196e-05
-0.000380406
-3.9178e-05
-0.000374505
-6.01009e-05
-0.000365465
-8.05157e-05
-0.000353285
-9.99151e-05
-0.000338031
-0.000117768
-0.000319841
-0.000133534
-0.000298943
-0.000146684
-0.000275657
-0.000156724
-0.000250401
-0.000163229
-0.000223688
-0.000165869
-0.000196115
-0.000164449
-0.000168344
-0.00015894
-0.000141072
-0.0001495
-0.000114995
-0.000136491
-9.07641e-05
-0.000120477
-6.89466e-05
-0.000102205
-4.99841e-05
-8.25747e-05
-3.41655e-05
-6.25956e-05
-2.16083e-05
-4.33433e-05
-1.22537e-05
-2.59189e-05
-5.87124e-06
-1.14201e-05
-2.07282e-06
-9.22347e-07
-3.31183e-07
4.53234e-06
3.90682e-06
-2.79917e-06
1.29646e-05
-1.00357e-05
3.65962e-05
-2.07377e-05
5.73519e-05
-3.41238e-05
7.51978e-05
-4.95903e-05
9.03794e-05
-6.66867e-05
0.000103252
-8.5083e-05
0.000114185
-0.000104536
0.000123501
-0.000124857
0.000131432
-0.000145885
0.000138107
-0.000167466
0.000143554
-0.000189438
0.000147712
-0.000211627
0.00015046
-0.000233839
0.000151637
-0.000255867
0.000151068
-0.000277486
0.000148582
-0.000298465
0.000144031
-0.000318564
0.000137301
-0.00033754
0.000128318
-0.000355149
0.000117059
-0.000371148
0.000103547
-0.000385298
8.78615e-05
-0.000397362
7.01329e-05
-0.000407113
5.05465e-05
-0.000414329
2.93425e-05
-0.0004188
6.8165e-06
-0.000420336
-1.66835e-05
-0.000418765
-4.07496e-05
-0.000413943
-6.49225e-05
-0.000405767
-8.86917e-05
-0.000394181
-0.000111501
-0.000379191
-0.000132757
-0.00036088
-0.000151845
-0.000339421
-0.000168143
-0.00031509
-0.000181055
-0.000288278
-0.000190041
-0.000259493
-0.000194654
-0.000229356
-0.000194587
-0.000198581
-0.000189715
-0.000167951
-0.00018013
-0.000138275
-0.000166167
-0.000110337
-0.000148415
-8.48465e-05
-0.000127696
-6.23842e-05
-0.000105037
-4.33637e-05
-8.16161e-05
-2.80042e-05
-5.87028e-05
-1.63201e-05
-3.76029e-05
-8.12577e-06
-1.96144e-05
-3.05109e-06
-5.99702e-06
-5.6531e-07
2.04656e-06
3.34151e-06
-3.07409e-06
1.60387e-05
-1.0974e-05
4.44961e-05
-2.2604e-05
6.89819e-05
-3.70906e-05
8.96844e-05
-5.37639e-05
0.000107053
-7.21286e-05
0.000121616
-9.18263e-05
0.000133883
-0.000112597
0.000144271
-0.000134242
0.000153077
-0.000156596
0.000160461
-0.000179502
0.00016646
-0.000202802
0.000171011
-0.000226321
0.000173979
-0.00024987
0.000175186
-0.000273245
0.000174443
-0.000296229
0.000171566
-0.000318595
0.000166397
-0.000340109
0.000158814
-0.000360532
0.000148741
-0.000379623
0.00013615
-0.00039714
0.000121064
-0.000412841
0.000103562
-0.000426484
8.37762e-05
-0.000437831
6.18933e-05
-0.000446646
3.81577e-05
-0.000452701
1.2871e-05
-0.000455777
-1.36071e-05
-0.000455671
-4.08561e-05
-0.000452198
-6.83956e-05
-0.000445204
-9.5686e-05
-0.000434574
-0.000122131
-0.00042025
-0.000147082
-0.000402243
-0.000169852
-0.000380654
-0.000189731
-0.000355696
-0.000206013
-0.000327708
-0.000218029
-0.000297167
-0.000225195
-0.000264693
-0.000227061
-0.000231039
-0.000223369
-0.000197063
-0.000214105
-0.00016369
-0.00019954
-0.00013185
-0.000180255
-0.000102417
-0.000157129
-7.61415e-05
-0.000131313
-5.35929e-05
-0.000104165
-3.51224e-05
-7.71733e-05
-2.08416e-05
-5.18836e-05
-1.06256e-05
-2.98305e-05
-4.13019e-06
-1.24924e-05
-8.20942e-07
-1.26269e-06
2.52057e-06
-3.31359e-06
1.93523e-05
-1.17915e-05
5.2974e-05
-2.42311e-05
8.14216e-05
-3.96792e-05
0.000105132
-5.7408e-05
0.000124782
-7.68828e-05
0.000141091
-9.77194e-05
0.000154719
-0.000119642
0.000166194
-0.000142444
0.000175879
-0.000165956
0.000183973
-0.000190022
0.000190526
-0.000214482
0.000195472
-0.000239168
0.000198665
-0.000263895
0.000199913
-0.000288464
0.000199013
-0.000312666
0.000195768
-0.00033628
0.000190011
-0.000359079
0.000181613
-0.00038083
0.000170492
-0.000401295
0.000156615
-0.000420237
0.000140006
-0.000437412
0.000120738
-0.000452579
9.89432e-05
-0.000465495
7.4809e-05
-0.000475917
4.85802e-05
-0.000483606
2.05602e-05
-0.000488326
-8.88705e-06
-0.000489848
-3.93347e-05
-0.000487952
-7.02915e-05
-0.000482438
-0.0001012
-0.000473134
-0.000131435
-0.000459908
-0.000160307
-0.000442692
-0.000187068
-0.0004215
-0.000210924
-0.000396454
-0.000231059
-0.000367812
-0.000246671
-0.000335991
-0.000257016
-0.000301579
-0.000261473
-0.000265337
-0.000259611
-0.000228181
-0.000251261
-0.000191141
-0.00023658
-0.000155301
-0.000216094
-0.000121721
-0.000190709
-9.13511e-05
-0.000161683
-6.49561e-05
-0.00013056
-4.30551e-05
-9.90743e-05
-2.58893e-05
-6.90495e-05
-1.34173e-05
-4.23025e-05
-5.33413e-06
-2.05756e-05
-1.10524e-06
-5.49158e-06
1.41533e-06
-3.51032e-06
2.28626e-05
-1.24649e-05
6.19286e-05
-2.55755e-05
9.45322e-05
-4.18239e-05
0.000121381
-6.04344e-05
0.000143392
-8.0838e-05
0.000161495
-0.000102628
0.000176509
-0.000125515
0.00018908
-0.000149283
0.000199648
-0.00017376
0.00020845
-0.00019879
0.000215556
-0.000224216
0.000220898
-0.000249872
0.000224321
-0.000275579
0.000225621
-0.000301147
0.00022458
-0.000326371
0.000220992
-0.000351039
0.000214679
-0.00037493
0.000205504
-0.000397818
0.000193379
-0.000419472
0.00017827
-0.000439658
0.000160192
-0.000458142
0.000139221
-0.000474684
0.000115486
-0.000489047
8.9172e-05
-0.000500991
6.05244e-05
-0.000510276
2.98449e-05
-0.000516659
-2.504e-06
-0.000519897
-3.60962e-05
-0.000519748
-7.04409e-05
-0.000515972
-0.000104976
-0.000508342
-0.000139064
-0.000496658
-0.000171991
-0.000480761
-0.000202965
-0.000460563
-0.000231122
-0.000436076
-0.000255546
-0.000407447
-0.0002753
-0.000374992
-0.000289471
-0.000339227
-0.000297238
-0.000300883
-0.000297956
-0.000260898
-0.000291246
-0.000220389
-0.000277089
-0.00018059
-0.000255894
-0.000142758
-0.000228541
-0.000108076
-0.000196365
-7.75431e-05
-0.000161092
-5.18934e-05
-0.000124724
-3.15383e-05
-8.94046e-05
-1.65522e-05
-5.72885e-05
-6.69005e-06
-3.04378e-05
-1.42655e-06
-1.07551e-05
-1.12214e-08
-3.65748e-06
2.65201e-05
-1.2973e-05
7.12442e-05
-2.65976e-05
0.000108157
-4.34651e-05
0.000138248
-6.27626e-05
0.00016269
-8.38934e-05
0.000182625
-0.000106431
0.000199046
-0.000130071
0.000212721
-0.000154592
0.000224169
-0.000179817
0.000233676
-0.000205589
0.000241328
-0.000231754
0.000247062
-0.000258149
0.000250716
-0.000284602
0.000252074
-0.000310927
0.000250905
-0.000336927
0.000246992
-0.000362396
0.000240148
-0.000387122
0.00023023
-0.000410886
0.000217143
-0.000433465
0.000200849
-0.000454635
0.000181363
-0.000474172
0.000158758
-0.00049185
0.000133163
-0.000507444
0.000104766
-0.000520729
7.38091e-05
-0.000531475
4.05914e-05
-0.000539448
5.46935e-06
-0.000544406
-3.11385e-05
-0.000546094
-6.87529e-05
-0.000544248
-0.000106822
-0.000538596
-0.000144716
-0.000528871
-0.000181716
-0.000514826
-0.00021701
-0.000496262
-0.000249686
-0.00047306
-0.000278748
-0.000445226
-0.000303133
-0.00041294
-0.000321757
-0.000376597
-0.000333581
-0.000336845
-0.000337708
-0.0002946
-0.000333492
-0.000251026
-0.000320663
-0.000207484
-0.000299435
-0.000165436
-0.000270589
-0.000126319
-0.000235482
-9.14114e-05
-0.000195999
-6.17133e-05
-0.000154422
-3.78588e-05
-0.000113259
-2.00815e-05
-7.50658e-05
-8.22603e-06
-4.22932e-05
-1.7948e-06
-1.71863e-05
-1.80602e-06
-3.74922e-06
3.02693e-05
-1.32975e-05
8.07924e-05
-2.7263e-05
0.000122122
-4.45511e-05
0.000155536
-6.43234e-05
0.000182462
-8.59614e-05
0.000204263
-0.000109021
0.000222106
-0.000133186
0.000236886
-0.000158225
0.000249208
-0.000183958
0.000259408
-0.000210225
0.000267595
-0.000236874
0.000273711
-0.000263745
0.000277587
-0.000290671
0.000278999
-0.00031747
0.000277704
-0.000343952
0.000273475
-0.000369919
0.000266115
-0.000395164
0.000255475
-0.000419478
0.000241457
-0.000442651
0.000224021
-0.00046447
0.000203182
-0.000484728
0.000179016
-0.000503221
0.000151656
-0.000519746
0.000121291
-0.000534102
8.81655e-05
-0.000546086
5.25751e-05
-0.000555484
1.48676e-05
-0.000562069
-2.45538e-05
-0.000565592
-6.52296e-05
-0.000565779
-0.000106635
-0.000562329
-0.000148166
-0.00055492
-0.000189126
-0.000543222
-0.000228708
-0.000526922
-0.000265986
-0.000505763
-0.000299908
-0.000479586
-0.00032931
-0.000448394
-0.000352948
-0.000412415
-0.00036956
-0.000372155
-0.000377968
-0.000328443
-0.000377204
-0.000282438
-0.000366668
-0.000235587
-0.000346286
-0.000189538
-0.000316638
-0.000145999
-0.000279022
-0.000106566
-0.000235432
-7.25623e-05
-0.000188426
-4.49076e-05
-0.000140914
-2.40506e-05
-9.59229e-05
-9.96796e-06
-5.63758e-05
-2.21622e-06
-2.4938e-05
-4.02224e-06
-3.78093e-06
3.40502e-05
-1.34237e-05
9.04352e-05
-2.75445e-05
0.000136243
-4.50407e-05
0.000173033
-6.50609e-05
0.000202482
-8.69711e-05
0.000226174
-0.000110312
0.000245447
-0.000134756
0.000261329
-0.000160062
0.000274514
-0.000186043
0.000285389
-0.000212536
0.000294089
-0.00023939
0.000300564
-0.000266446
0.000304643
-0.00029354
0.000306092
-0.000320495
0.00030466
-0.000347127
0.000300107
-0.000373244
0.000292231
-0.000398647
0.000280878
-0.000423138
0.000265949
-0.00044652
0.000247402
-0.000468599
0.000225261
-0.00048919
0.000199607
-0.000508116
0.000170582
-0.000525206
0.000138381
-0.000540294
0.000103254
-0.000553213
6.54941e-05
-0.000563786
2.54398e-05
-0.000571813
-1.65266e-05
-0.00057707
-5.99719e-05
-0.000579291
-0.000104415
-0.000578162
-0.000149295
-0.000573325
-0.000193963
-0.000564383
-0.000237651
-0.000550917
-0.000279451
-0.000532529
-0.000318296
-0.000508884
-0.000352956
-0.00047978
-0.000382052
-0.000445228
-0.000404112
-0.000405533
-0.000417662
-0.000361366
-0.000421371
-0.000313802
-0.000414232
-0.000264314
-0.000395774
-0.000214698
-0.000366253
-0.000166925
-0.000326795
-0.000122939
-0.000279418
-8.44451e-05
-0.00022692
-5.27193e-05
-0.00017264
-2.84954e-05
-0.000120147
-1.19391e-05
-7.29322e-05
-2.69997e-06
-3.41771e-05
-6.72221e-06
-3.74957e-06
3.77998e-05
-1.33419e-05
0.000100027
-2.74234e-05
0.000150325
-4.49051e-05
0.000190514
-6.49355e-05
0.000222513
-8.68719e-05
0.00024811
-0.000110243
0.000268818
-0.000134708
0.000285794
-0.000160014
0.000299821
-0.000185968
0.000311342
-0.000212403
0.000320524
-0.000239163
0.000327324
-0.000266092
0.000331573
-0.000293027
0.000333027
-0.000319796
0.000331428
-0.000346219
0.00032653
-0.00037211
0.000318123
-0.000397282
0.00030605
-0.000421547
0.000290214
-0.000444725
0.000270581
-0.000466645
0.000247181
-0.000487149
0.000220111
-0.000506091
0.000189525
-0.000523342
0.000155632
-0.000538776
0.000118689
-0.000552274
7.89913e-05
-0.000563703
3.6869e-05
-0.000572907
-7.32277e-06
-0.000579703
-5.31756e-05
-0.000583849
-0.000100269
-0.000585041
-0.000148103
-0.000582906
-0.000196098
-0.000576999
-0.000243557
-0.000566821
-0.00028963
-0.000551839
-0.000333278
-0.000531542
-0.000373252
-0.00050551
-0.000408084
-0.000473503
-0.00043612
-0.000435563
-0.000455601
-0.000392127
-0.000464807
-0.000344101
-0.000462259
-0.000292897
-0.000446978
-0.00024039
-0.00041876
-0.000188781
-0.000378404
-0.000140376
-0.000327823
-9.73112e-05
-0.000269984
-6.12977e-05
-0.000208653
-3.34375e-05
-0.000148007
-1.41571e-05
-9.22126e-05
-3.25291e-06
-4.50814e-05
-9.97513e-06
-3.65392e-06
4.14537e-05
-1.30476e-05
0.000109421
-2.68907e-05
0.000164168
-4.41295e-05
0.000207753
-6.3926e-05
0.000242309
-8.56356e-05
0.00026982
-0.000108777
0.00029196
-0.000132997
0.000310013
-0.00015803
0.000324854
-0.000183674
0.000336986
-0.000209753
0.000346604
-0.000236111
0.000353682
-0.00026259
0.000358051
-0.000289027
0.000359465
-0.000315255
0.000357656
-0.000341099
0.000352373
-0.00036638
0.000343404
-0.000390922
0.000330592
-0.000414553
0.000313844
-0.000437111
0.000293138
-0.00045845
0.000268521
-0.000478443
0.000240104
-0.000496983
0.000208065
-0.000513981
0.000172629
-0.000529361
0.000134069
-0.000543054
9.26837e-05
-0.000554982
4.87976e-05
-0.000565041
2.73612e-06
-0.000573102
-4.51142e-05
-0.000578964
-9.44077e-05
-0.000582353
-0.000144714
-0.000582906
-0.000195545
-0.000580161
-0.000246302
-0.000573558
-0.000296232
-0.000562462
-0.000344374
-0.000546201
-0.000389514
-0.000524135
-0.00043015
-0.000495753
-0.000464502
-0.000460795
-0.000490559
-0.000419388
-0.000506214
-0.000372174
-0.000509472
-0.000320401
-0.000498752
-0.000265926
-0.000473235
-0.000211118
-0.000433213
-0.000158622
-0.000380319
-0.000111046
-0.000317561
-7.06097e-05
-0.000249089
-3.88799e-05
-0.000179737
-1.66327e-05
-0.00011446
-3.88023e-06
-5.78338e-05
-1.38554e-05
-3.49476e-06
4.49485e-05
-1.25427e-05
0.000118469
-2.59481e-05
0.000177573
-4.27149e-05
0.00022452
-6.20317e-05
0.000261626
-8.32595e-05
0.000291047
-0.00010591
0.00031461
-0.000129616
0.000333719
-0.0001541
0.000349339
-0.000179146
0.000362032
-0.000204573
0.000372031
-0.000230217
0.000379327
-0.000255921
0.000383754
-0.000281522
0.000385066
-0.000306856
0.000382991
-0.000331756
0.000377273
-0.000356052
0.0003677
-0.000379579
0.000354119
-0.000402183
0.000336449
-0.000423726
0.000314681
-0.000444087
0.000288882
-0.000463175
0.000259191
-0.000480918
0.000225808
-0.000497274
0.000188985
-0.000512216
0.000149011
-0.000525727
0.000106195
-0.000537785
6.08561e-05
-0.000548359
1.331e-05
-0.000557356
-3.61175e-05
-0.000564644
-8.71199e-05
-0.000569997
-0.000139361
-0.000573086
-0.000192456
-0.000573459
-0.000245929
-0.000570533
-0.000299158
-0.000563602
-0.000351305
-0.000551865
-0.00040125
-0.000534486
-0.000447529
-0.000510685
-0.000488303
-0.000479873
-0.000521371
-0.000441813
-0.000544275
-0.000396792
-0.000554493
-0.000345777
-0.000549766
-0.000290489
-0.000528523
-0.000233359
-0.000490343
-0.000177322
-0.000436356
-0.000125462
-0.000369421
-8.05796e-05
-0.000293972
-4.48041e-05
-0.000215512
-1.93677e-05
-0.000139896
-4.58529e-06
-7.26162e-05
-1.84406e-05
-3.27491e-06
4.82234e-05
-1.18349e-05
0.000127029
-2.46087e-05
0.000190347
-4.06786e-05
0.00024059
-5.92735e-05
0.000280221
-7.97672e-05
0.000311541
-0.000101667
0.00033651
-0.000124593
0.000356646
-0.000148255
0.000373
-0.000172422
0.000386198
-0.000196903
0.000396513
-0.000221531
0.000403954
-0.000246143
0.000408367
-0.000270582
0.000409505
-0.000294686
0.000407096
-0.000318297
0.000400884
-0.000341257
0.00039066
-0.000363417
0.000376279
-0.000384642
0.000357673
-0.000404817
0.000334856
-0.000423853
0.000307918
-0.000441689
0.000277028
-0.000458296
0.000242416
-0.000473673
0.000204362
-0.000487839
0.000163177
-0.00050083
0.000119185
-0.000512681
7.2707e-05
-0.000523414
2.4043e-05
-0.000533006
-2.65247e-05
-0.000541386
-7.87406e-05
-0.000548389
-0.000132357
-0.000553742
-0.000187103
-0.000557032
-0.000242639
-0.00055769
-0.0002985
-0.000554981
-0.000354014
-0.00054802
-0.000408211
-0.000535813
-0.000459737
-0.000517337
-0.000506778
-0.000491677
-0.000547031
-0.000458198
-0.000577754
-0.000416761
-0.00059593
-0.000367937
-0.00059859
-0.000313172
-0.000583288
-0.000254826
-0.000548689
-0.000196026
-0.000495156
-0.000140305
-0.000425142
-9.10869e-05
-0.000343189
-5.11684e-05
-0.000255431
-2.2355e-05
-0.00016871
-5.36937e-06
-8.96018e-05
-2.381e-05
-2.9993e-06
5.12227e-05
-1.09385e-05
0.000134968
-2.28971e-05
0.000202306
-3.80551e-05
0.000255748
-5.56945e-05
0.00029786
-7.52099e-05
0.000331057
-9.6108e-05
0.000357408
-0.000117998
0.000378535
-0.000140573
0.000395575
-0.000163589
0.000409214
-0.000186845
0.000419769
-0.000210167
0.000427276
-0.000233392
0.000431592
-0.000256364
0.000432477
-0.000278931
0.000429663
-0.000300943
0.000422896
-0.000322257
0.000411974
-0.000342742
0.000396764
-0.000362287
0.000377218
-0.000380802
0.000353371
-0.000398228
0.000325344
-0.000414539
0.000293339
-0.000429741
0.000257617
-0.000443871
0.000218492
-0.000456993
0.000176299
-0.000469187
0.00013138
-0.00048054
8.40593e-05
-0.000491125
3.46282e-05
-0.000500984
-1.66658e-05
-0.000510107
-6.96173e-05
-0.000518402
-0.000124063
-0.000525663
-0.000179841
-0.000531543
-0.00023676
-0.000535518
-0.000294525
-0.000536872
-0.00035266
-0.000534686
-0.000410397
-0.000527861
-0.000466562
-0.000515183
-0.000519457
-0.000495437
-0.000566777
-0.00046759
-0.0006056
-0.00043103
-0.00063249
-0.000385837
-0.000643783
-0.000333041
-0.000636084
-0.000274771
-0.000606958
-0.000214206