/*--------------------------------*- C++ -*----------------------------------*\
| =========                 |                                                 |
| \\      /  F ield         | OpenFOAM: The Open Source CFD Toolbox           |
|  \\    /   O peration     | Version:  2312                                  |
|   \\  /    A nd           | Website:  www.openfoam.com                      |
|    \\/     M anipulation  |                                                 |
\*---------------------------------------------------------------------------*/
FoamFile
{
    version     2.0;
    format      ascii;
    arch        "LSB;label=32;scalar=64";
    class       volVectorField;
    location    "50";
    object      U;
}
// * * * * * * * * * * * * * * * * * * * * * * * * * * * * * * * * * * * * * //

dimensions      [0 1 -1 0 0 0 0];

internalField   nonuniform List<vector> 
2601
(
(4.96987e-05 -4.94015e-05 0)
(0.000160107 -6.51207e-05 0)
(0.000241648 -4.07036e-05 0)
(0.000225991 -3.98892e-06 0)
(9.79246e-05 3.20301e-05 0)
(-0.000135032 6.28281e-05 0)
(-0.000459264 8.82059e-05 0)
(-0.000859917 0.000108578 0)
(-0.00132498 0.000125194 0)
(-0.00184479 0.000139308 0)
(-0.00241204 0.000151862 0)
(-0.00302109 0.00016341 0)
(-0.003667 0.000174134 0)
(-0.00434464 0.000183889 0)
(-0.00504785 0.000192272 0)
(-0.0057689 0.000198692 0)
(-0.00649807 0.000202434 0)
(-0.00722342 0.000202728 0)
(-0.00793082 0.000198798 0)
(-0.0086041 0.000189926 0)
(-0.00922543 0.000175499 0)
(-0.00977578 0.000155074 0)
(-0.0102357 0.000128429 0)
(-0.0105859 9.56199e-05 0)
(-0.0108085 5.70345e-05 0)
(-0.0108882 1.34403e-05 0)
(-0.0108125 -3.39883e-05 0)
(-0.0105734 -8.38401e-05 0)
(-0.0101686 -0.000134267 0)
(-0.00960158 -0.000183166 0)
(-0.00888244 -0.000228292 0)
(-0.00802789 -0.000267389 0)
(-0.00706103 -0.000298342 0)
(-0.00601063 -0.000319342 0)
(-0.00490999 -0.000329043 0)
(-0.00379545 -0.000326687 0)
(-0.00270457 -0.000312188 0)
(-0.00167418 -0.000286159 0)
(-0.000738393 -0.000249887 0)
(7.30856e-05 -0.000205271 0)
(0.000736503 -0.000154472 0)
(0.00123542 -9.99424e-05 0)
(0.00156122 -4.43451e-05 0)
(0.00171349 9.72669e-06 0)
(0.0017003 5.95994e-05 0)
(0.00153873 0.000102376 0)
(0.00125624 0.00013414 0)
(0.000892759 0.000149247 0)
(0.000503204 0.000138888 0)
(0.000165621 9.11896e-05 0)
(1.07335e-05 1.10588e-05 0)
(6.7948e-05 -0.000162309 0)
(0.000172662 -0.000170058 0)
(0.000145475 -2.7022e-05 0)
(-0.000112504 0.000169609 0)
(-0.000630093 0.000371394 0)
(-0.00139798 0.000555573 0)
(-0.00239335 0.00071563 0)
(-0.00358798 0.00085157 0)
(-0.00495494 0.000967026 0)
(-0.00647061 0.00106631 0)
(-0.00811483 0.00115289 0)
(-0.00986984 0.00122876 0)
(-0.0117185 0.00129426 0)
(-0.0136427 0.00134816 0)
(-0.0156213 0.00138802 0)
(-0.0176298 0.00141044 0)
(-0.0196384 0.00141151 0)
(-0.0216129 0.00138715 0)
(-0.0235139 0.00133343 0)
(-0.0252983 0.001247 0)
(-0.0269195 0.0011253 0)
(-0.0283297 0.000966954 0)
(-0.029481 0.000772015 0)
(-0.0303278 0.000542198 0)
(-0.0308289 0.000281041 0)
(-0.0309503 -5.97199e-06 0)
(-0.0306665 -0.00031107 0)
(-0.0299631 -0.000625264 0)
(-0.0288393 -0.000937804 0)
(-0.0273085 -0.00123683 0)
(-0.0253989 -0.00151001 0)
(-0.023154 -0.00174519 0)
(-0.0206315 -0.00193116 0)
(-0.0179015 -0.00205844 0)
(-0.0150441 -0.00212002 0)
(-0.0121461 -0.00211192 0)
(-0.00929735 -0.00203366 0)
(-0.00658596 -0.00188835 0)
(-0.00409448 -0.00168268 0)
(-0.00189566 -0.0014265 0)
(-4.87747e-05 -0.00113203 0)
(0.00140328 -0.00081331 0)
(0.00243643 -0.000485654 0)
(0.00304684 -0.000165079 0)
(0.00325208 0.000131738 0)
(0.00309227 0.000386678 0)
(0.002632 0.000578936 0)
(0.00196172 0.00068298 0)
(0.00119698 0.000666596 0)
(0.000493414 0.000493735 0)
(8.99368e-05 0.000164806 0)
(4.3705e-05 -0.000248574 0)
(1.90004e-05 -0.000142837 0)
(-0.000281336 0.000251538 0)
(-0.000932123 0.00075533 0)
(-0.0019563 0.00127415 0)
(-0.00334129 0.00175818 0)
(-0.00505715 0.00218803 0)
(-0.00706727 0.00256104 0)
(-0.00933509 0.0028826 0)
(-0.0118268 0.00316029 0)
(-0.0145117 0.00340043 0)
(-0.0173605 0.0036063 0)
(-0.0203438 0.00377755 0)
(-0.0234297 0.00391035 0)
(-0.026582 0.00399797 0)
(-0.0297584 0.00403169 0)
(-0.0329105 0.00400167 0)
(-0.035983 0.00389798 0)
(-0.0389147 0.0037115 0)
(-0.0416396 0.00343479 0)
(-0.0440886 0.00306291 0)
(-0.0461918 0.00259414 0)
(-0.0478811 0.00203064 0)
(-0.0490931 0.00137886 0)
(-0.0497722 0.000649876 0)
(-0.0498736 -0.000140489 0)
(-0.049366 -0.00097154 0)
(-0.0482345 -0.00181903 0)
(-0.0464826 -0.00265525 0)
(-0.0441334 -0.00345029 0)
(-0.0412307 -0.00417341 0)
(-0.0378383 -0.0047947 0)
(-0.034039 -0.00528676 0)
(-0.0299322 -0.00562653 0)
(-0.0256309 -0.00579684 0)
(-0.0212571 -0.00578791 0)
(-0.0169372 -0.00559824 0)
(-0.0127961 -0.00523511 0)
(-0.00895198 -0.00471443 0)
(-0.00551032 -0.00406004 0)
(-0.00255885 -0.00330248 0)
(-0.000163042 -0.00247745 0)
(0.00163751 -0.00162436 0)
(0.00283192 -0.000785258 0)
(0.00343979 -4.35218e-06 0)
(0.00351302 0.000671035 0)
(0.00313726 0.00118961 0)
(0.00243147 0.00149369 0)
(0.00154466 0.00151873 0)
(0.000676782 0.00119916 0)
(0.000138602 0.000501637 0)
(8.80027e-07 -0.000225633 0)
(-0.000220576 0.000151234 0)
(-0.000900461 0.000925224 0)
(-0.00205493 0.00184973 0)
(-0.00368232 0.00278823 0)
(-0.0057599 0.00366663 0)
(-0.00824879 0.00445348 0)
(-0.0111045 0.00514284 0)
(-0.014283 0.00574124 0)
(-0.0177425 0.00625876 0)
(-0.0214433 0.00670359 0)
(-0.0253462 0.00707911 0)
(-0.0294101 0.00738282 0)
(-0.0335899 0.00760663 0)
(-0.0378343 0.00773787 0)
(-0.0420848 0.00776081 0)
(-0.0462752 0.00765836 0)
(-0.0503318 0.00741374 0)
(-0.0541745 0.00701216 0)
(-0.0577187 0.00644231 0)
(-0.0608777 0.00569774 0)
(-0.0635653 0.00477801 0)
(-0.0656993 0.00368967 0)
(-0.0672047 0.00244688 0)
(-0.0680174 0.00107176 0)
(-0.0680867 -0.000405574 0)
(-0.0673795 -0.00194768 0)
(-0.065882 -0.00351063 0)
(-0.0636025 -0.0050454 0)
(-0.0605719 -0.00649976 0)
(-0.0568452 -0.00782056 0)
(-0.0525003 -0.00895629 0)
(-0.0476375 -0.0098599 0)
(-0.0423761 -0.0104917 0)
(-0.0368518 -0.0108218 0)
(-0.0312113 -0.0108328 0)
(-0.0256077 -0.0105211 0)
(-0.0201937 -0.00989829 0)
(-0.0151153 -0.00899051 0)
(-0.0105049 -0.00783813 0)
(-0.00647525 -0.00649372 0)
(-0.0031132 -0.00501979 0)
(-0.000475035 -0.00348637 0)
(0.00141739 -0.00196889 0)
(0.00257909 -0.000546729 0)
(0.00306443 0.000695766 0)
(0.00296819 0.00166972 0)
(0.00242387 0.00227922 0)
(0.00159987 0.00242142 0)
(0.000724207 0.00199172 0)
(0.000153698 0.000900442 0)
(-4.87832e-05 -5.69509e-05 0)
(-0.000506943 0.000788274 0)
(-0.00163826 0.00208424 0)
(-0.0033739 0.00353862 0)
(-0.00567713 0.00498499 0)
(-0.00850784 0.00633223 0)
(-0.0118144 0.00754133 0)
(-0.0155433 0.00860496 0)
(-0.0196432 0.00953119 0)
(-0.0240655 0.010332 0)
(-0.0287631 0.0110164 0)
(-0.0336876 0.0115861 0)
(-0.0387876 0.012035 0)
(-0.0440056 0.012349 0)
(-0.0492768 0.012508 0)
(-0.0545277 0.0124883 0)
(-0.0596765 0.0122647 0)
(-0.0646337 0.0118135 0)
(-0.0693038 0.0111146 0)
(-0.0735876 0.0101538 0)
(-0.077385 0.00892456 0)
(-0.0805983 0.00742976 0)
(-0.0831357 0.00568258 0)
(-0.0849147 0.00370739 0)
(-0.0858658 0.00153999 0)
(-0.0859354 -0.00077271 0)
(-0.0850891 -0.00317372 0)
(-0.0833139 -0.00559706 0)
(-0.0806204 -0.0079701 0)
(-0.0770442 -0.010216 0)
(-0.0726462 -0.012257 0)
(-0.0675127 -0.0140176 0)
(-0.0617539 -0.015429 0)
(-0.0555022 -0.0164324 0)
(-0.0489084 -0.016983 0)
(-0.0421373 -0.0170537 0)
(-0.0353625 -0.0166369 0)
(-0.0287592 -0.0157471 0)
(-0.0224977 -0.0144204 0)
(-0.0167351 -0.0127142 0)
(-0.0116083 -0.0107049 0)
(-0.00722664 -0.00848462 0)
(-0.00366557 -0.00615817 0)
(-0.000961806 -0.00383937 0)
(0.000889261 -0.00164875 0)
(0.00193729 0.000287556 0)
(0.0022782 0.00183751 0)
(0.00205114 0.00286208 0)
(0.00143561 0.00321482 0)
(0.000675941 0.0027443 0)
(0.000148182 0.0012957 0)
(-0.000101824 0.000272609 0)
(-0.000818904 0.00180937 0)
(-0.00244617 0.00378691 0)
(-0.00481519 0.00588562 0)
(-0.0078448 0.00792437 0)
(-0.0114717 0.00980572 0)
(-0.0156281 0.01149 0)
(-0.0202494 0.0129723 0)
(-0.0252769 0.014264 0)
(-0.0306557 0.0153789 0)
(-0.0363317 0.0163258 0)
(-0.042249 0.0171037 0)
(-0.0483467 0.0177009 0)
(-0.0545568 0.018096 0)
(-0.0608022 0.0182603 0)
(-0.0669969 0.0181612 0)
(-0.0730461 0.0177655 0)
(-0.0788473 0.0170426 0)
(-0.0842931 0.0159681 0)
(-0.0892732 0.0145261 0)
(-0.093678 0.0127117 0)
(-0.0974019 0.0105326 0)
(-0.100346 0.0080106 0)
(-0.102424 0.00518206 0)
(-0.103561 0.00209802 0)
(-0.103702 -0.00117637 0)
(-0.102809 -0.00456321 0)
(-0.100867 -0.00797343 0)
(-0.0978868 -0.0113096 0)
(-0.0939027 -0.0144691 0)
(-0.0889766 -0.017348 0)
(-0.0831967 -0.0198453 0)
(-0.0766776 -0.0218679 0)
(-0.0695583 -0.0233356 0)
(-0.0619995 -0.0241857 0)
(-0.0541796 -0.0243782 0)
(-0.046289 -0.023899 0)
(-0.0385235 -0.0227627 0)
(-0.0310766 -0.021014 0)
(-0.0241307 -0.0187265 0)
(-0.0178486 -0.0160008 0)
(-0.0123645 -0.0129608 0)
(-0.0077772 -0.00974883 0)
(-0.00414306 -0.00652128 0)
(-0.00147235 -0.00344462 0)
(0.000274253 -0.000691797 0)
(0.00118707 0.00155705 0)
(0.00140542 0.00311501 0)
(0.00111421 0.00378719 0)
(0.000564928 0.00337083 0)
(0.00013142 0.00164663 0)
(-0.000156667 0.000772201 0)
(-0.00114484 0.0032423 0)
(-0.00329339 0.0060706 0)
(-0.00632663 0.00893096 0)
(-0.0101127 0.0116437 0)
(-0.014561 0.0141172 0)
(-0.0195845 0.0163198 0)
(-0.0251062 0.0182544 0)
(-0.0310594 0.0199379 0)
(-0.0373829 0.021387 0)
(-0.0440167 0.0226099 0)
(-0.0508983 0.0236013 0)
(-0.0579588 0.0243429 0)
(-0.0651212 0.0248047 0)
(-0.0722986 0.0249487 0)
(-0.0793946 0.0247329 0)
(-0.0863041 0.0241162 0)
(-0.0929152 0.023062 0)
(-0.0991115 0.0215425 0)
(-0.104775 0.0195414 0)
(-0.10979 0.0170567 0)
(-0.114045 0.0141023 0)
(-0.117437 0.0107096 0)
(-0.119875 0.00692778 0)
(-0.12128 0.00282359 0)
(-0.121592 -0.00151932 0)
(-0.120769 -0.00600216 0)
(-0.118791 -0.0105127 0)
(-0.115662 -0.0149285 0)
(-0.111412 -0.0191208 0)
(-0.106097 -0.0229583 0)
(-0.099801 -0.0263127 0)
(-0.0926378 -0.0290644 0)
(-0.0847476 -0.0311083 0)
(-0.0762969 -0.0323603 0)
(-0.067474 -0.0327632 0)
(-0.0584846 -0.0322922 0)
(-0.0495443 -0.0309586 0)
(-0.0408709 -0.0288121 0)
(-0.0326744 -0.0259409 0)
(-0.0251467 -0.0224693 0)
(-0.0184519 -0.0185538 0)
(-0.0127167 -0.0143771 0)
(-0.00802259 -0.0101417 0)
(-0.00440018 -0.00606416 0)
(-0.00182562 -0.00237013 0)
(-0.000218856 0.000707555 0)
(0.000554938 0.00292927 0)
(0.000681821 0.00404775 0)
(0.00041399 0.00380676 0)
(0.000109068 0.00192718 0)
(-0.000212138 0.00144618 0)
(-0.00147668 0.00510079 0)
(-0.00415771 0.00895471 0)
(-0.00786824 0.0126953 0)
(-0.0124224 0.0161609 0)
(-0.0176997 0.0192792 0)
(-0.0235921 0.022036 0)
(-0.0300093 0.024448 0)
(-0.036876 0.0265414 0)
(-0.0441251 0.0283369 0)
(-0.0516914 0.0298419 0)
(-0.0595066 0.0310465 0)
(-0.0674957 0.0319246 0)
(-0.0755744 0.0324366 0)
(-0.0836482 0.0325348 0)
(-0.0916133 0.0321682 0)
(-0.099357 0.0312878 0)
(-0.106761 0.0298521 0)
(-0.113703 0.0278307 0)
(-0.12006 0.025208 0)
(-0.125713 0.0219856 0)
(-0.130546 0.0181844 0)
(-0.134452 0.0138455 0)
(-0.137336 0.00903041 0)
(-0.139113 0.00382122 0)
(-0.139718 -0.00168091 0)
(-0.1391 -0.00735736 0)
(-0.137229 -0.0130735 0)
(-0.134099 -0.0186826 0)
(-0.129729 -0.0240293 0)
(-0.124164 -0.0289545 0)
(-0.117479 -0.0333006 0)
(-0.109781 -0.0369185 0)
(-0.101206 -0.0396745 0)
(-0.0919225 -0.041458 0)
(-0.0821255 -0.0421897 0)
(-0.0720344 -0.0418282 0)
(-0.0618849 -0.0403759 0)
(-0.0519205 -0.0378832 0)
(-0.0423823 -0.0344495 0)
(-0.0334963 -0.0302215 0)
(-0.0254621 -0.0253885 0)
(-0.0184408 -0.0201755 0)
(-0.0125453 -0.0148352 0)
(-0.00783292 -0.00963898 0)
(-0.00430075 -0.00487072 0)
(-0.00188355 -0.000821671 0)
(-0.000454901 0.00221087 0)
(0.000169225 0.00392339 0)
(0.000237684 0.00400505 0)
(8.43932e-05 0.00212164 0)
(-0.000267463 0.00229597 0)
(-0.00180801 0.00738858 0)
(-0.00502063 0.012444 0)
(-0.00940601 0.0171823 0)
(-0.0147231 0.0214769 0)
(-0.0208205 0.0252882 0)
(-0.0275684 0.0286296 0)
(-0.0348626 0.0315384 0)
(-0.0426192 0.0340538 0)
(-0.0507657 0.0362026 0)
(-0.0592323 0.0379916 0)
(-0.0679464 0.0394059 0)
(-0.0768279 0.040411 0)
(-0.0857877 0.0409577 0)
(-0.094726 0.0409881 0)
(-0.103534 0.0404425 0)
(-0.112094 0.039265 0)
(-0.120285 0.0374096 0)
(-0.12798 0.0348442 0)
(-0.135056 0.0315543 0)
(-0.141389 0.0275456 0)
(-0.146861 0.0228456 0)
(-0.151362 0.0175042 0)
(-0.154791 0.0115944 0)
(-0.157057 0.0052117 0)
(-0.158085 -0.00152693 0)
(-0.157813 -0.00848482 0)
(-0.156199 -0.0155065 0)
(-0.153221 -0.022422 0)
(-0.148882 -0.02905 0)
(-0.143212 -0.0352025 0)
(-0.13627 -0.040691 0)
(-0.12815 -0.0453336 0)
(-0.118981 -0.0489636 0)
(-0.108927 -0.0514383 0)
(-0.0981865 -0.0526492 0)
(-0.0869903 -0.0525312 0)
(-0.0755935 -0.0510709 0)
(-0.0642672 -0.048313 0)
(-0.0532866 -0.044363 0)
(-0.0429178 -0.0393869 0)
(-0.0334024 -0.0336064 0)
(-0.0249438 -0.0272907 0)
(-0.0176943 -0.0207463 0)
(-0.0117454 -0.0143057 0)
(-0.00712146 -0.00831682 0)
(-0.00377721 -0.00313627 0)
(-0.00159858 0.000875102 0)
(-0.000406046 0.00335314 0)
(4.41203e-05 0.00393052 0)
(5.90963e-05 0.00222059 0)
(-0.000321818 0.00331977 0)
(-0.00213265 0.0101006 0)
(-0.00586485 0.0165303 0)
(-0.0109085 0.0223806 0)
(-0.0169678 0.0275766 0)
(-0.0238608 0.0321252 0)
(-0.0314358 0.0360775 0)
(-0.0395749 0.0394982 0)
(-0.0481861 0.042444 0)
(-0.0571917 0.0449495 0)
(-0.0665183 0.0470221 0)
(-0.0760899 0.0486417 0)
(-0.0858236 0.0497655 0)
(-0.0956266 0.0503343 0)
(-0.105397 0.0502807 0)
(-0.115022 0.0495363 0)
(-0.124383 0.0480391 0)
(-0.133358 0.0457392 0)
(-0.141819 0.0426033 0)
(-0.149641 0.0386182 0)
(-0.1567 0.033793 0)
(-0.162875 0.0281608 0)
(-0.168052 0.021779 0)
(-0.172125 0.0147299 0)
(-0.174995 0.00711993 0)
(-0.176575 -0.000920526 0)
(-0.17679 -0.00923777 0)
(-0.175581 -0.0176593 0)
(-0.17291 -0.0259932 0)
(-0.168757 -0.0340328 0)
(-0.163134 -0.041561 0)
(-0.156078 -0.0483569 0)
(-0.147666 -0.0542027 0)
(-0.138011 -0.0588938 0)
(-0.127269 -0.0622491 0)
(-0.115636 -0.0641232 0)
(-0.103351 -0.0644185 0)
(-0.0906847 -0.0630965 0)
(-0.0779368 -0.0601875 0)
(-0.0654197 -0.0557961 0)
(-0.0534443 -0.0501026 0)
(-0.0423021 -0.043359 0)
(-0.0322479 -0.0358799 0)
(-0.0234829 -0.0280298 0)
(-0.0161419 -0.0202084 0)
(-0.0102847 -0.012836 0)
(-0.00589234 -0.0063424 0)
(-0.00286735 -0.00115967 0)
(-0.00103703 0.00228158 0)
(-0.000163415 0.00355391 0)
(3.37911e-05 0.00221754 0)
(-0.000374193 0.00451251 0)
(-0.00244414 0.0132233 0)
(-0.00667321 0.0211932 0)
(-0.0123451 0.0282644 0)
(-0.0191115 0.0344299 0)
(-0.0267605 0.0397562 0)
(-0.03512 0.0443423 0)
(-0.0440586 0.0482873 0)
(-0.0534767 0.0516694 0)
(-0.0632921 0.0545335 0)
(-0.0734287 0.0568886 0)
(-0.0838085 0.0587099 0)
(-0.0943466 0.0599465 0)
(-0.104949 0.0605295 0)
(-0.115513 0.0603822 0)
(-0.125926 0.0594284 0)
(-0.136069 0.0576005 0)
(-0.14582 0.054845 0)
(-0.155053 0.0511274 0)
(-0.163642 0.0464354 0)
(-0.171463 0.0407805 0)
(-0.178395 0.0342 0)
(-0.184318 0.0267567 0)
(-0.18912 0.0185397 0)
(-0.192694 0.00966409 0)
(-0.194941 0.000270561 0)
(-0.195771 -0.00947417 0)
(-0.195109 -0.0193819 0)
(-0.192895 -0.029241 0)
(-0.189088 -0.0388211 0)
(-0.183672 -0.0478769 0)
(-0.176663 -0.0561538 0)
(-0.168112 -0.0633961 0)
(-0.158111 -0.0693567 0)
(-0.146798 -0.0738097 0)
(-0.134362 -0.0765642 0)
(-0.121041 -0.0774799 0)
(-0.107119 -0.076482 0)
(-0.0929211 -0.073575 0)
(-0.0787971 -0.0688523 0)
(-0.0651072 -0.062501 0)
(-0.0522006 -0.0547989 0)
(-0.0403931 -0.0461058 0)
(-0.0299463 -0.0368482 0)
(-0.0210499 -0.0275 0)
(-0.0138093 -0.0185632 0)
(-0.00823984 -0.0105513 0)
(-0.00426632 -0.00397736 0)
(-0.00172546 0.000653265 0)
(-0.000385352 0.00284689 0)
(8.36218e-06 0.00210659 0)
(-0.000423409 0.00586566 0)
(-0.00273561 0.0167346 0)
(-0.00742825 0.0264004 0)
(-0.0136856 0.0347942 0)
(-0.0211098 0.041992 0)
(-0.0294615 0.048133 0)
(-0.0385489 0.0533731 0)
(-0.0482283 0.0578527 0)
(-0.0583933 0.0616756 0)
(-0.0689579 0.0648996 0)
(-0.0798437 0.0675364 0)
(-0.0909718 0.0695575 0)
(-0.102257 0.0709041 0)
(-0.113606 0.0714984 0)
(-0.124916 0.0712549 0)
(-0.136076 0.0700901 0)
(-0.146969 0.0679311 0)
(-0.157475 0.0647211 0)
(-0.167471 0.0604241 0)
(-0.176831 0.0550277 0)
(-0.185432 0.0485449 0)
(-0.193149 0.0410151 0)
(-0.199863 0.0325044 0)
(-0.205454 0.0231064 0)
(-0.209806 0.0129418 0)
(-0.212811 0.00215903 0)
(-0.214364 -0.00906697 0)
(-0.214373 -0.0205335 0)
(-0.212757 -0.0320128 0)
(-0.209452 -0.0432532 0)
(-0.204415 -0.0539827 0)
(-0.197632 -0.0639141 0)
(-0.189124 -0.0727524 0)
(-0.178955 -0.0802049 0)
(-0.167237 -0.085995 0)
(-0.15414 -0.0898778 0)
(-0.139893 -0.0916588 0)
(-0.124784 -0.0912137 0)
(-0.109158 -0.0885069 0)
(-0.0933995 -0.083607 0)
(-0.0779204 -0.0766956 0)
(-0.0631335 -0.0680692 0)
(-0.0494262 -0.0581299 0)
(-0.0371336 -0.0473686 0)
(-0.0265137 -0.0363413 0)
(-0.0177308 -0.0256427 0)
(-0.0108453 -0.0158829 0)
(-0.00581167 -0.00766873 0)
(-0.00247993 -0.00159185 0)
(-0.000624924 0.00177852 0)
(-1.77516e-05 0.00188078 0)
(-0.000468171 0.00736693 0)
(-0.00299997 0.0206037 0)
(-0.00811242 0.0321083 0)
(-0.0148997 0.0419174 0)
(-0.0229195 0.0502049 0)
(-0.031907 0.0571937 0)
(-0.0416527 0.0631057 0)
(-0.0520017 0.0681286 0)
(-0.0628412 0.072396 0)
(-0.0740818 0.075981 0)
(-0.0856441 0.0788996 0)
(-0.0974488 0.0811204 0)
(-0.109412 0.0825774 0)
(-0.12144 0.0831846 0)
(-0.133434 0.0828483 0)
(-0.145285 0.0814784 0)
(-0.156879 0.0789966 0)
(-0.168099 0.075343 0)
(-0.178824 0.0704794 0)
(-0.188931 0.0643927 0)
(-0.198297 0.0570956 0)
(-0.206798 0.0486282 0)
(-0.214311 0.0390578 0)
(-0.220713 0.0284802 0)
(-0.225882 0.0170192 0)
(-0.229701 0.00482758 0)
(-0.232054 -0.00791294 0)
(-0.232835 -0.0209904 0)
(-0.231942 -0.0341641 0)
(-0.229288 -0.047165 0)
(-0.224803 -0.0596978 0)
(-0.218442 -0.0714451 0)
(-0.21019 -0.0820735 0)
(-0.200074 -0.0912438 0)
(-0.18817 -0.0986241 0)
(-0.174619 -0.103908 0)
(-0.159626 -0.106834 0)
(-0.143472 -0.107216 0)
(-0.126509 -0.104958 0)
(-0.109152 -0.100088 0)
(-0.0918607 -0.0927644 0)
(-0.0751166 -0.0832898 0)
(-0.059388 -0.0721019 0)
(-0.0450969 -0.0597565 0)
(-0.0325866 -0.0468985 0)
(-0.022096 -0.0342282 0)
(-0.0137449 -0.0224678 0)
(-0.007528 -0.0123347 0)
(-0.00331427 -0.00452206 0)
(-0.000887511 0.000312241 0)
(-4.54968e-05 0.00153082 0)
(-0.000507128 0.00900016 0)
(-0.00323004 0.0247912 0)
(-0.00870837 0.0382618 0)
(-0.0159584 0.0495692 0)
(-0.0244989 0.0589975 0)
(-0.0340428 0.0668637 0)
(-0.0443648 0.0734634 0)
(-0.0552996 0.0790371 0)
(-0.0667288 0.0837519 0)
(-0.0785602 0.0876988 0)
(-0.0907132 0.0908996 0)
(-0.103109 0.093321 0)
(-0.115665 0.0948911 0)
(-0.128291 0.095516 0)
(-0.140889 0.0950946 0)
(-0.153354 0.0935304 0)
(-0.165577 0.0907402 0)
(-0.177442 0.0866602 0)
(-0.188833 0.0812501 0)
(-0.199629 0.0744947 0)
(-0.209708 0.0664057 0)
(-0.218949 0.0570224 0)
(-0.227226 0.0464122 0)
(-0.234417 0.0346709 0)
(-0.240398 0.0219234 0)
(-0.245045 0.00832478 0)
(-0.248237 -0.0059398 0)
(-0.249855 -0.0206531 0)
(-0.249784 -0.0355662 0)
(-0.247916 -0.0503975 0)
(-0.244155 -0.0648339 0)
(-0.238421 -0.0785326 0)
(-0.230661 -0.0911258 0)
(-0.220858 -0.102229 0)
(-0.209043 -0.111454 0)
(-0.195311 -0.118425 0)
(-0.179832 -0.122808 0)
(-0.162859 -0.124332 0)
(-0.144738 -0.122828 0)
(-0.1259 -0.118255 0)
(-0.106847 -0.11073 0)
(-0.0881276 -0.10054 0)
(-0.0702974 -0.0881469 0)
(-0.05388 -0.0741664 0)
(-0.0393218 -0.0593381 0)
(-0.0269565 -0.0444809 0)
(-0.0169814 -0.0304481 0)
(-0.00944552 -0.0180883 0)
(-0.004246 -0.00821651 0)
(-0.00118003 -0.00159635 0)
(-7.60895e-05 0.00104398 0)
(-0.000538948 0.0107454 0)
(-0.00341893 0.0292494 0)
(-0.00919955 0.0447951 0)
(-0.016834 0.0576727 0)
(-0.0258088 0.0682867 0)
(-0.0358181 0.0770561 0)
(-0.0466226 0.0843572 0)
(-0.0580479 0.0904877 0)
(-0.06997 0.0956519 0)
(-0.0822942 0.0999608 0)
(-0.0949393 0.103444 0)
(-0.107827 0.106067 0)
(-0.120876 0.107754 0)
(-0.133999 0.108402 0)
(-0.1471 0.107905 0)
(-0.16008 0.106159 0)
(-0.172831 0.103077 0)
(-0.185243 0.0985912 0)
(-0.197202 0.0926576 0)
(-0.20859 0.0852592 0)
(-0.21929 0.0764061 0)
(-0.229181 0.0661363 0)
(-0.238142 0.0545162 0)
(-0.246052 0.0416411 0)
(-0.25279 0.0276358 0)
(-0.258232 0.0126553 0)
(-0.262256 -0.00311461 0)
(-0.264738 -0.0194554 0)
(-0.265553 -0.036115 0)
(-0.264579 -0.052806 0)
(-0.261696 -0.0692046 0)
(-0.256792 -0.08495 0)
(-0.249772 -0.099647 0)
(-0.240572 -0.112871 0)
(-0.229168 -0.124179 0)
(-0.215595 -0.133127 0)
(-0.199967 -0.139294 0)
(-0.182495 -0.142315 0)
(-0.163494 -0.141922 0)
(-0.143393 -0.137983 0)
(-0.12272 -0.13054 0)
(-0.102085 -0.119841 0)
(-0.0821342 -0.106349 0)
(-0.0635038 -0.0907298 0)
(-0.0467623 -0.0738186 0)
(-0.0323613 -0.0565654 0)
(-0.0205987 -0.0399759 0)
(-0.0115971 -0.0250555 0)
(-0.00529475 -0.0127666 0)
(-0.00151047 -0.00400104 0)
(-0.000111011 0.000403146 0)
(-0.000562391 0.0125789 0)
(-0.00356026 0.0339228 0)
(-0.00957084 0.0516326 0)
(-0.0175012 0.0661404 0)
(-0.0268135 0.0779781 0)
(-0.0371866 0.0876731 0)
(-0.0483693 0.0956869 0)
(-0.0601788 0.102379 0)
(-0.072486 0.107993 0)
(-0.0851932 0.112663 0)
(-0.0982182 0.116426 0)
(-0.111483 0.119251 0)
(-0.124909 0.121056 0)
(-0.138409 0.121733 0)
(-0.151893 0.121168 0)
(-0.165263 0.119253 0)
(-0.178416 0.115894 0)
(-0.191245 0.111021 0)
(-0.203639 0.104586 0)
(-0.215486 0.0965713 0)
(-0.226671 0.0869842 0)
(-0.23708 0.0758619 0)
(-0.246597 0.0632705 0)
(-0.255109 0.0493046 0)
(-0.262501 0.0340885 0)
(-0.268657 0.0177757 0)
(-0.273458 0.000550413 0)
(-0.276784 -0.0173718 0)
(-0.278509 -0.0357413 0)
(-0.2785 -0.0542723 0)
(-0.276619 -0.072639 0)
(-0.272727 -0.090473 0)
(-0.266692 -0.107362 0)
(-0.258396 -0.12285 0)
(-0.247752 -0.136446 0)
(-0.234726 -0.14764 0)
(-0.219361 -0.155921 0)
(-0.201797 -0.160818 0)
(-0.182297 -0.161941 0)
(-0.16126 -0.159039 0)
(-0.13922 -0.152045 0)
(-0.116829 -0.141132 0)
(-0.0948207 -0.126731 0)
(-0.0739509 -0.109539 0)
(-0.0549286 -0.0904784 0)
(-0.0383485 -0.0706418 0)
(-0.0246368 -0.0512094 0)
(-0.0140148 -0.0333737 0)
(-0.00648076 -0.0182759 0)
(-0.00188765 -0.00696509 0)
(-0.000152176 -0.000412094 0)
(-0.000576385 0.014474 0)
(-0.00364854 0.0387488 0)
(-0.00980916 0.0586897 0)
(-0.0179383 0.0748751 0)
(-0.0274822 0.0879676 0)
(-0.0381084 0.0986068 0)
(-0.0495557 0.107342 0)
(-0.0616336 0.114598 0)
(-0.0742076 0.12066 0)
(-0.0871769 0.125687 0)
(-0.100458 0.129727 0)
(-0.113972 0.132751 0)
(-0.127642 0.134672 0)
(-0.141384 0.135378 0)
(-0.155109 0.13475 0)
(-0.168723 0.132672 0)
(-0.182125 0.129048 0)
(-0.195212 0.123802 0)
(-0.207877 0.116886 0)
(-0.220014 0.108278 0)
(-0.231514 0.0979863 0)
(-0.242271 0.0860485 0)
(-0.252178 0.0725308 0)
(-0.261132 0.0575286 0)
(-0.269031 0.041166 0)
(-0.275772 0.0235947 0)
(-0.28125 0.004995 0)
(-0.285353 -0.0144238 0)
(-0.28796 -0.0344199 0)
(-0.28894 -0.0547172 0)
(-0.288144 -0.0749979 0)
(-0.285412 -0.094898 0)
(-0.280577 -0.114001 0)
(-0.273472 -0.131833 0)
(-0.263945 -0.147869 0)
(-0.251883 -0.161538 0)
(-0.237241 -0.172242 0)
(-0.220068 -0.179398 0)
(-0.200547 -0.182477 0)
(-0.179013 -0.181077 0)
(-0.155975 -0.174985 0)
(-0.132104 -0.164251 0)
(-0.108205 -0.149235 0)
(-0.0851511 -0.130626 0)
(-0.0638069 -0.109421 0)
(-0.0449362 -0.0868558 0)
(-0.0291257 -0.0643068 0)
(-0.0167267 -0.0431883 0)
(-0.00782261 -0.0248595 0)
(-0.00231878 -0.0105617 0)
(-0.000200422 -0.00142734 0)
(-0.0005801 0.0164009 0)
(-0.00367946 0.0436593 0)
(-0.00990418 0.0658747 0)
(-0.0181279 0.0837715 0)
(-0.0277903 0.098143 0)
(-0.0385512 0.109741 0)
(-0.0501417 0.119204 0)
(-0.0623642 0.127024 0)
(-0.0750783 0.133529 0)
(-0.0881793 0.138906 0)
(-0.101581 0.143215 0)
(-0.115206 0.146428 0)
(-0.128975 0.148459 0)
(-0.142807 0.14919 0)
(-0.156614 0.148496 0)
(-0.170305 0.146257 0)
(-0.183783 0.142371 0)
(-0.196947 0.136761 0)
(-0.209697 0.129376 0)
(-0.221931 0.120194 0)
(-0.233548 0.109226 0)
(-0.244452 0.09651 0)
(-0.254551 0.0821158 0)
(-0.263755 0.0661413 0)
(-0.271981 0.0487115 0)
(-0.279142 0.0299769 0)
(-0.285154 0.0101126 0)
(-0.28992 -0.010681 0)
(-0.293336 -0.0321751 0)
(-0.295276 -0.0541108 0)
(-0.295593 -0.076189 0)
(-0.294116 -0.0980625 0)
(-0.29065 -0.119326 0)
(-0.284984 -0.139507 0)
(-0.276905 -0.15806 0)
(-0.266219 -0.174369 0)
(-0.25278 -0.187761 0)
(-0.23653 -0.197537 0)
(-0.217539 -0.203022 0)
(-0.196049 -0.203635 0)
(-0.172502 -0.198976 0)
(-0.147553 -0.188921 0)
(-0.122048 -0.1737 0)
(-0.0969683 -0.153947 0)
(-0.0733381 -0.130698 0)
(-0.0521146 -0.105324 0)
(-0.0340801 -0.0794167 0)
(-0.0197537 -0.0546481 0)
(-0.00933654 -0.032641 0)
(-0.00281187 -0.0148729 0)
(-0.000257668 -0.00267318 0)
(-0.000573002 0.0183281 0)
(-0.00365017 0.0485816 0)
(-0.00984888 0.0730901 0)
(-0.0180581 0.0927183 0)
(-0.0277202 0.108385 0)
(-0.0384921 0.120952 0)
(-0.0500987 0.131147 0)
(-0.0623356 0.139527 0)
(-0.0750565 0.146468 0)
(-0.0881518 0.152183 0)
(-0.101532 0.156746 0)
(-0.115118 0.160136 0)
(-0.128831 0.162263 0)
(-0.14259 0.163007 0)
(-0.156309 0.162237 0)
(-0.169898 0.159829 0)
(-0.183264 0.155678 0)
(-0.196311 0.149704 0)
(-0.208943 0.141856 0)
(-0.221065 0.132115 0)
(-0.232587 0.120494 0)
(-0.243424 0.107037 0)
(-0.2535 0.0918194 0)
(-0.262745 0.0749435 0)
(-0.271093 0.0565377 0)
(-0.278485 0.0367522 0)
(-0.284856 0.0157572 0)
(-0.290136 -0.00625794 0)
(-0.29424 -0.029082 0)
(-0.297061 -0.0524791 0)
(-0.298461 -0.0761784 0)
(-0.298268 -0.0998628 0)
(-0.296273 -0.123155 0)
(-0.292232 -0.145602 0)
(-0.285878 -0.16666 0)
(-0.276939 -0.18569 0)
(-0.265166 -0.20196 0)
(-0.250379 -0.214668 0)
(-0.232515 -0.222989 0)
(-0.211685 -0.226145 0)
(-0.188223 -0.223513 0)
(-0.162719 -0.214735 0)
(-0.136022 -0.199846 0)
(-0.109192 -0.179356 0)
(-0.0834083 -0.154286 0)
(-0.0598381 -0.126119 0)
(-0.0394938 -0.0966671 0)
(-0.0231061 -0.0678974 0)
(-0.0110344 -0.0417483 0)
(-0.00337338 -0.0199873 0)
(-0.000325409 -0.00418291 0)
(-0.000554914 0.020223 0)
(-0.00355949 0.0534406 0)
(-0.00964006 0.0802351 0)
(-0.0177229 0.1016 0)
(-0.0272631 0.118571 0)
(-0.0379186 0.132113 0)
(-0.0494105 0.143039 0)
(-0.0615281 0.151974 0)
(-0.0741184 0.159338 0)
(-0.0870659 0.165374 0)
(-0.100278 0.170173 0)
(-0.113671 0.173718 0)
(-0.127166 0.175921 0)
(-0.140683 0.176658 0)
(-0.154137 0.175793 0)
(-0.16744 0.173201 0)
(-0.180502 0.168772 0)
(-0.193232 0.162427 0)
(-0.205539 0.154117 0)
(-0.217338 0.143826 0)
(-0.22855 0.131573 0)
(-0.239105 0.117412 0)
(-0.248943 0.101425 0)
(-0.258015 0.0837235 0)
(-0.266279 0.0644409 0)
(-0.273699 0.0437292 0)
(-0.280241 0.0217545 0)
(-0.285859 -0.00130532 0)
(-0.290498 -0.0252615 0)
(-0.294074 -0.0499033 0)
(-0.296469 -0.0749966 0)
(-0.297522 -0.100266 0)
(-0.297023 -0.125379 0)
(-0.29471 -0.149921 0)
(-0.290275 -0.173375 0)
(-0.283378 -0.195105 0)
(-0.273675 -0.214347 0)
(-0.260858 -0.230217 0)
(-0.244717 -0.241749 0)
(-0.2252 -0.247964 0)
(-0.20249 -0.247982 0)
(-0.177062 -0.241162 0)
(-0.149712 -0.227264 0)
(-0.121535 -0.206591 0)
(-0.0938441 -0.180073 0)
(-0.0680195 -0.149251 0)
(-0.0453357 -0.116151 0)
(-0.0267811 -0.0830669 0)
(-0.0129225 -0.0523089 0)
(-0.0040081 -0.0259975 0)
(-0.000404933 -0.00599331 0)
(-0.000526039 0.0220528 0)
(-0.0034081 0.0581605 0)
(-0.00927871 0.0872073 0)
(-0.0171231 0.110299 0)
(-0.0264189 0.128575 0)
(-0.0368298 0.143093 0)
(-0.0480751 0.154748 0)
(-0.0599382 0.164227 0)
(-0.072259 0.171999 0)
(-0.0849155 0.178334 0)
(-0.0978094 0.183343 0)
(-0.110855 0.187016 0)
(-0.123971 0.189266 0)
(-0.137077 0.189968 0)
(-0.150089 0.188983 0)
(-0.162923 0.186183 0)
(-0.175492 0.181458 0)
(-0.18771 0.174729 0)
(-0.199494 0.165952 0)
(-0.210769 0.155116 0)
(-0.221469 0.142252 0)
(-0.231539 0.127422 0)
(-0.240938 0.110722 0)
(-0.249637 0.0922733 0)
(-0.257618 0.0722175 0)
(-0.264874 0.0507102 0)
(-0.271395 0.0279149 0)
(-0.27717 0.00399842 0)
(-0.282171 -0.0208706 0)
(-0.286343 -0.0465129 0)
(-0.289597 -0.0727358 0)
(-0.291795 -0.0993154 0)
(-0.292739 -0.125975 0)
(-0.292164 -0.15236 0)
(-0.289741 -0.178005 0)
(-0.285079 -0.202306 0)
(-0.277752 -0.2245 0)
(-0.267335 -0.243651 0)
(-0.253461 -0.258678 0)
(-0.235899 -0.268409 0)
(-0.214641 -0.271694 0)
(-0.189994 -0.267562 0)
(-0.162637 -0.255422 0)
(-0.133643 -0.235268 0)
(-0.104412 -0.207836 0)
(-0.0765275 -0.174649 0)
(-0.0515461 -0.137913 0)
(-0.0307607 -0.100264 0)
(-0.0150003 -0.0644431 0)
(-0.00471896 -0.0329977 0)
(-0.000497371 -0.00814346 0)
(-0.000486979 0.0237855 0)
(-0.00319863 0.062667 0)
(-0.00877023 0.0939061 0)
(-0.0162666 0.1187 0)
(-0.0251977 0.138271 0)
(-0.0352372 0.153762 0)
(-0.0461052 0.16614 0)
(-0.0575801 0.17615 0)
(-0.0694942 0.184309 0)
(-0.0817182 0.190917 0)
(-0.0941479 0.196105 0)
(-0.106693 0.199871 0)
(-0.119272 0.202134 0)
(-0.131803 0.202767 0)
(-0.144205 0.20163 0)
(-0.156396 0.198593 0)
(-0.168294 0.193549 0)
(-0.17982 0.18642 0)
(-0.190901 0.177168 0)
(-0.201473 0.165794 0)
(-0.211482 0.152338 0)
(-0.22089 0.136877 0)
(-0.229675 0.119521 0)
(-0.237828 0.100404 0)
(-0.245355 0.0796801 0)
(-0.252273 0.0575093 0)
(-0.258602 0.0340542 0)
(-0.264357 0.00947261 0)
(-0.269543 -0.0160841 0)
(-0.274137 -0.0424712 0)
(-0.278084 -0.0695394 0)
(-0.281274 -0.0971211 0)
(-0.283535 -0.125007 0)
(-0.28462 -0.152917 0)
(-0.284193 -0.180461 0)
(-0.281841 -0.207098 0)
(-0.277074 -0.2321 0)
(-0.269367 -0.254523 0)
(-0.258208 -0.273208 0)
(-0.243178 -0.286816 0)
(-0.224053 -0.29393 0)
(-0.200921 -0.29322 0)
(-0.17428 -0.283676 0)
(-0.145106 -0.264876 0)
(-0.114825 -0.237237 0)
(-0.0851872 -0.202152 0)
(-0.0580362 -0.161935 0)
(-0.03501 -0.119561 0)
(-0.0172599 -0.0782574 0)
(-0.00550673 -0.0410794 0)
(-0.000603649 -0.0106736 0)
(-0.000438722 0.0253913 0)
(-0.00293561 0.0668895 0)
(-0.0081245 0.100235 0)
(-0.0151686 0.126688 0)
(-0.0236192 0.147539 0)
(-0.0331649 0.163994 0)
(-0.0435289 0.177084 0)
(-0.054486 0.187609 0)
(-0.0658607 0.19613 0)
(-0.0775158 0.202981 0)
(-0.0893407 0.208312 0)
(-0.101242 0.212133 0)
(-0.113134 0.214367 0)
(-0.124936 0.214892 0)
(-0.136571 0.213567 0)
(-0.147961 0.210263 0)
(-0.159029 0.204874 0)
(-0.169707 0.19733 0)
(-0.179929 0.187599 0)
(-0.189646 0.175694 0)
(-0.198817 0.161669 0)
(-0.207421 0.145617 0)
(-0.215453 0.127664 0)
(-0.222924 0.107961 0)
(-0.229862 0.0866719 0)
(-0.236305 0.0639669 0)
(-0.242296 0.0400093 0)
(-0.247879 0.01495 0)
(-0.253087 -0.0110775 0)
(-0.257931 -0.0379575 0)
(-0.262388 -0.0655845 0)
(-0.266386 -0.0938492 0)
(-0.269788 -0.122616 0)