/*--------------------------------*- C++ -*----------------------------------*\
| =========                 |                                                 |
| \\      /  F ield         | OpenFOAM: The Open Source CFD Toolbox           |
|  \\    /   O peration     | Version:  2312                                  |
|   \\  /    A nd           | Website:  www.openfoam.com                      |
|    \\/     M anipulation  |                                                 |
\*---------------------------------------------------------------------------*/
FoamFile
{
    version     2.0;
    format      ascii;
    arch        "LSB;label=32;scalar=64";
    class       volVectorField;
    location    "50";
    object      U;
}
// * * * * * * * * * * * * * * * * * * * * * * * * * * * * * * * * * * * * * //

dimensions      [0 1 -1 0 0 0 0];

internalField   nonuniform List<vector> 
2500
(
(5.27007e-05 -5.23757e-05 0)
(0.000167481 -6.76438e-05 0)
(0.00024835 -4.08468e-05 0)
(0.000224776 -1.7002e-06 0)
(8.20323e-05 3.59994e-05 0)
(-0.000170299 6.81586e-05 0)
(-0.000517399 9.43487e-05 0)
(-0.000943831 0.0001153 0)
(-0.00143683 0.000132419 0)
(-0.00198639 0.000147036 0)
(-0.00258504 0.000160114 0)
(-0.0032269 0.000172183 0)
(-0.00390667 0.000183362 0)
(-0.0046186 0.000193418 0)
(-0.00535567 0.000201848 0)
(-0.00610894 0.000207953 0)
(-0.00686721 0.000210919 0)
(-0.00761682 0.000209887 0)
(-0.00834172 0.000204012 0)
(-0.00902375 0.000192533 0)
(-0.00964307 0.000174834 0)
(-0.0101788 0.00015051 0)
(-0.0106099 0.000119436 0)
(-0.0109162 8.18366e-05 0)
(-0.0110792 3.83376e-05 0)
(-0.0110837 -1.00791e-05 0)
(-0.0109185 -6.20084e-05 0)
(-0.0105782 -0.000115542 0)
(-0.0100632 -0.000168487 0)
(-0.00938142 -0.000218428 0)
(-0.00854774 -0.000262857 0)
(-0.00758442 -0.000299349 0)
(-0.00652031 -0.000325749 0)
(-0.00538979 -0.00034036 0)
(-0.00423122 -0.000342098 0)
(-0.00308504 -0.000330617 0)
(-0.00199159 -0.000306354 0)
(-0.000988841 -0.000270523 0)
(-0.000110314 -0.000225051 0)
(0.000616453 -0.000172374 0)
(0.00117171 -0.000114948 0)
(0.00154445 -5.58469e-05 0)
(0.00173248 2.08283e-06 0)
(0.00174304 5.585e-05 0)
(0.00159323 0.000102428 0)
(0.00131126 0.000137543 0)
(0.000938887 0.000155212 0)
(0.0005338 0.000146085 0)
(0.000178563 9.73658e-05 0)
(1.28808e-05 1.32332e-05 0)
(7.05685e-05 -0.000169861 0)
(0.000174566 -0.000171962 0)
(0.000132919 -1.65605e-05 0)
(-0.000155784 0.000192362 0)
(-0.000718843 0.000404508 0)
(-0.00154363 0.000596969 0)
(-0.00260523 0.000763094 0)
(-0.00387353 0.000903694 0)
(-0.00531999 0.00102297 0)
(-0.00691985 0.00112553 0)
(-0.00865198 0.00121492 0)
(-0.0104975 0.00129295 0)
(-0.0124377 0.00135959 0)
(-0.0144524 0.00141315 0)
(-0.016518 0.00145062 0)
(-0.0186063 0.00146808 0)
(-0.0206839 0.00146112 0)
(-0.0227118 0.00142527 0)
(-0.0246463 0.00135639 0)
(-0.0264392 0.00125105 0)
(-0.0280398 0.0011069 0)
(-0.0293962 0.000923005 0)
(-0.0304577 0.000700173 0)
(-0.0311768 0.000441179 0)
(-0.0315125 0.000150909 0)
(-0.0314322 -0.000163659 0)
(-0.0309143 -0.000493158 0)
(-0.0299507 -0.000826516 0)
(-0.0285484 -0.00115122 0)
(-0.0267308 -0.00145385 0)
(-0.0245378 -0.00172085 0)
(-0.0220254 -0.00193936 0)
(-0.0192642 -0.0020981 0)
(-0.0163369 -0.00218825 0)
(-0.013335 -0.0022042 0)
(-0.0103546 -0.00214408 0)
(-0.00749171 -0.00201012 0)
(-0.00483751 -0.00180854 0)
(-0.00247365 -0.0015493 0)
(-0.000467967 -0.00124543 0)
(0.00112882 -0.000911873 0)
(0.00228632 -0.000565242 0)
(0.00299618 -0.000223028 0)
(0.0032735 9.6142e-05 0)
(0.00315786 0.000372634 0)
(0.00271524 0.000584151 0)
(0.00204 0.000703251 0)
(0.00125363 0.000695298 0)
(0.000520766 0.000521018 0)
(9.60225e-05 0.000177675 0)
(4.37083e-05 -0.000255121 0)
(7.08567e-06 -0.000128585 0)
(-0.000329289 0.000296426 0)
(-0.00103922 0.000830655 0)
(-0.00214252 0.00137622 0)
(-0.00362315 0.00188183 0)
(-0.00544807 0.00232844 0)
(-0.00757793 0.00271457 0)
(-0.00997389 0.00304665 0)
(-0.0126003 0.00333286 0)
(-0.0154244 0.0035795 0)
(-0.018415 0.00378934 0)
(-0.0215398 0.00396108 0)
(-0.0247634 0.00408965 0)
(-0.028045 0.004167 0)
(-0.0313373 0.00418311 0)
(-0.0345856 0.00412707 0)
(-0.0377283 0.00398816 0)
(-0.0406975 0.00375692 0)
(-0.0434208 0.00342611 0)
(-0.0458232 0.00299158 0)
(-0.04783 0.00245309 0)
(-0.0493699 0.00181498 0)
(-0.0503782 0.00108658 0)
(-0.0508003 0.000282447 0)
(-0.0505946 -0.00057763 0)
(-0.0497358 -0.00146875 0)
(-0.0482183 -0.00236218 0)
(-0.0460571 -0.00322607 0)
(-0.0432893 -0.00402689 0)
(-0.0399742 -0.00473123 0)
(-0.0361928 -0.00530765 0)
(-0.0320453 -0.00572875 0)
(-0.0276481 -0.00597309 0)
(-0.0231293 -0.00602694 0)
(-0.0186237 -0.00588552 0)
(-0.0142668 -0.00555379 0)
(-0.0101883 -0.0050465 0)
(-0.00650605 -0.00438759 0)
(-0.00331967 -0.00360894 0)
(-0.000705586 -0.00274877 0)
(0.0012874 -0.00184953 0)
(0.00264086 -0.000956456 0)
(0.00337009 -0.00011916 0)
(0.00352601 0.000611474 0)
(0.00319558 0.00117992 0)
(0.00250216 0.00152377 0)
(0.00160224 0.00157309 0)
(0.000706958 0.00125603 0)
(0.000145902 0.000532238 0)
(-1.89851e-06 -0.000222651 0)
(-0.000250035 0.00020052 0)
(-0.000992752 0.00103147 0)
(-0.00223834 0.00201084 0)
(-0.00398124 0.00299679 0)
(-0.00619451 0.00391368 0)
(-0.00883518 0.00473085 0)
(-0.0118554 0.00544406 0)
(-0.0152083 0.0060613 0)
(-0.0188495 0.00659337 0)
(-0.0227366 0.00704826 0)
(-0.0268273 0.00742823 0)
(-0.0310765 0.00772905 0)
(-0.0354339 0.00794045 0)
(-0.0398423 0.00804747 0)
(-0.0442363 0.00803231 0)
(-0.0485421 0.00787616 0)
(-0.0526779 0.00756122 0)
(-0.0565559 0.00707248 0)
(-0.060084 0.0063994 0)
(-0.0631689 0.00553736 0)
(-0.0657198 0.00448896 0)
(-0.0676513 0.00326485 0)
(-0.0688879 0.00188445 0)
(-0.0693673 0.000376077 0)
(-0.069044 -0.00122328 0)
(-0.0678923 -0.00286896 0)
(-0.0659097 -0.00450977 0)
(-0.063118 -0.00608988 0)
(-0.0595646 -0.00755123 0)
(-0.0553225 -0.0088363 0)
(-0.0504894 -0.00989121 0)
(-0.0451856 -0.0106689 0)
(-0.0395503 -0.0111325 0)
(-0.0337373 -0.0112576 0)
(-0.0279091 -0.0110353 0)
(-0.0222303 -0.0104726 0)
(-0.0168606 -0.00959374 0)
(-0.0119471 -0.00843877 0)
(-0.00761701 -0.00706215 0)
(-0.00397088 -0.00553024 0)
(-0.00107627 -0.00391843 0)
(0.00103405 -0.00230851 0)
(0.00236897 -0.000787378 0)
(0.00298136 0.000553691 0)
(0.00296589 0.00161768 0)
(0.00246054 0.00230055 0)
(0.00164171 0.00249064 0)
(0.000749484 0.00207346 0)
(0.000160387 0.000947931 0)
(-5.50762e-05 -3.45423e-05 0)
(-0.000555509 0.000894465 0)
(-0.00177822 0.00228218 0)
(-0.00364 0.003821 0)
(-0.00609724 0.0053389 0)
(-0.00910445 0.00674391 0)
(-0.0126052 0.00799858 0)
(-0.0165419 0.00909796 0)
(-0.0208602 0.010052 0)
(-0.0255082 0.0108733 0)
(-0.0304353 0.0115703 0)
(-0.0355892 0.0121429 0)
(-0.040913 0.0125821 0)
(-0.0463432 0.0128707 0)
(-0.0518075 0.0129854 0)
(-0.0572243 0.0128994 0)
(-0.062503 0.0125855 0)
(-0.0675451 0.0120189 0)
(-0.0722466 0.0111798 0)
(-0.0765005 0.0100555 0)
(-0.0802001 0.00864293 0)
(-0.0832432 0.00694968 0)
(-0.0855353 0.00499545 0)
(-0.086994 0.00281246 0)
(-0.0875526 0.000445576 0)
(-0.0871633 -0.00204831 0)
(-0.0858001 -0.00460195 0)
(-0.0834622 -0.00713923 0)
(-0.0801746 -0.00957794 0)
(-0.0759901 -0.0118331 0)
(-0.0709891 -0.0138208 0)
(-0.065279 -0.0154621 0)
(-0.058992 -0.016688 0)
(-0.0522824 -0.0174432 0)
(-0.0453219 -0.0176907 0)
(-0.0382939 -0.0174147 0)
(-0.0313865 -0.016623 0)
(-0.024785 -0.0153482 0)
(-0.018663 -0.0136467 0)
(-0.0131742 -0.011597 0)
(-0.00844432 -0.0092965 0)
(-0.00456314 -0.00685737 0)
(-0.00158016 -0.00440352 0)
(0.000501214 -0.00206493 0)
(0.00172651 2.02956e-05 0)
(0.00219043 0.00170833 0)
(0.00203621 0.00284805 0)
(0.00145123 0.00328025 0)
(0.000691971 0.00283976 0)
(0.000153436 0.00135598 0)
(-0.000111705 0.000325334 0)
(-0.000887332 0.00199768 0)
(-0.0026357 0.00410942 0)
(-0.00516687 0.00632661 0)
(-0.00838949 0.00846363 0)
(-0.0122335 0.0104235 0)
(-0.0166254 0.0121694 0)
(-0.0214962 0.0136998 0)
(-0.0267835 0.015028 0)
(-0.0324287 0.0161687 0)
(-0.0383739 0.0171293 0)
(-0.0445581 0.017906 0)
(-0.0509143 0.0184832 0)
(-0.0573671 0.0188352 0)
(-0.0638313 0.0189291 0)
(-0.0702115 0.0187287 0)
(-0.0764035 0.0181983 0)
(-0.0822956 0.0173067 0)
(-0.0877712 0.0160303 0)
(-0.0927125 0.014356 0)
(-0.0970036 0.0122839 0)
(-0.100534 0.00982873 0)
(-0.103204 0.00702099 0)
(-0.104926 0.00390757 0)
(-0.105629 0.000551421 0)
(-0.105263 -0.0029693 0)
(-0.103799 -0.00656351 0)
(-0.101235 -0.0101291 0)
(-0.0975938 -0.0135562 0)
(-0.0929282 -0.0167318 0)
(-0.0873193 -0.0195434 0)
(-0.0808775 -0.0218853 0)
(-0.0737405 -0.0236634 0)
(-0.0660714 -0.0248013 0)
(-0.0580546 -0.0252455 0)
(-0.0498903 -0.0249703 0)
(-0.0417875 -0.0239812 0)
(-0.0339558 -0.0223167 0)
(-0.0265959 -0.0200485 0)
(-0.0198897 -0.0172794 0)
(-0.0139908 -0.0141391 0)
(-0.00901516 -0.01078 0)
(-0.00503457 -0.00737097 0)
(-0.00207024 -0.00409241 0)
(-8.9548e-05 -0.0011336 0)
(0.000995463 0.00130933 0)
(0.00132693 0.00303287 0)
(0.00109718 0.00382499 0)
(0.000569481 0.00346511 0)
(0.000134979 0.00171409 0)
(-0.000170043 0.000865953 0)
(-0.00123315 0.00353734 0)
(-0.00353267 0.00655064 0)
(-0.00676375 0.00956801 0)
(-0.0107811 0.0124079 0)
(-0.0154857 0.0149816 0)
(-0.0207842 0.0172621 0)
(-0.0265945 0.0192566 0)
(-0.032846 0.0209849 0)
(-0.0394735 0.022464 0)
(-0.0464127 0.0236998 0)
(-0.0535953 0.0246835 0)
(-0.0609456 0.0253914 0)
(-0.0683785 0.025788 0)
(-0.0757982 0.0258304 0)
(-0.0830987 0.0254726 0)
(-0.0901651 0.0246709 0)
(-0.0968758 0.0233885 0)
(-0.103106 0.0215993 0)
(-0.10873 0.0192912 0)
(-0.113626 0.0164688 0)
(-0.117678 0.0131552 0)
(-0.120781 0.00939286 0)
(-0.122844 0.00524376 0)
(-0.123791 0.00078925 0)
(-0.123566 -0.00387133 0)
(-0.122136 -0.00862313 0)
(-0.11949 -0.013338 0)
(-0.115645 -0.0178785 0)
(-0.110648 -0.022102 0)
(-0.104573 -0.0258668 0)
(-0.0975281 -0.0290372 0)
(-0.0896502 -0.0314913 0)
(-0.0811061 -0.0331272 0)
(-0.0720889 -0.0338705 0)
(-0.0628129 -0.0336808 0)
(-0.0535072 -0.0325566 0)
(-0.0444064 -0.0305387 0)
(-0.0357404 -0.0277114 0)
(-0.0277233 -0.0242003 0)
(-0.0205413 -0.0201687 0)
(-0.0143423 -0.015811 0)
(-0.00922641 -0.0113456 0)
(-0.0052387 -0.00700756 0)
(-0.00236496 -0.00304321 0)
(-0.000529423 0.000293312 0)
(0.000403968 0.00274075 0)
(0.000627957 0.00402991 0)
(0.000405985 0.00388245 0)
(0.000110942 0.00199546 0)
(-0.000228937 0.00159166 0)
(-0.00158441 0.00552682 0)
(-0.00444533 0.00962449 0)
(-0.00838791 0.0135646 0)
(-0.0132096 0.0171879 0)
(-0.0187801 0.0204284 0)
(-0.0249841 0.023279 0)
(-0.0317258 0.0257623 0)
(-0.0389258 0.0279078 0)
(-0.046513 0.0297362 0)
(-0.0544172 0.0312517 0)
(-0.0625642 0.0324396 0)
(-0.0708716 0.0332673 0)
(-0.0792467 0.0336888 0)
(-0.0875857 0.0336505 0)
(-0.0957749 0.0330971 0)
(-0.103692 0.0319774 0)
(-0.111209 0.03025 0)
(-0.118196 0.0278874 0)
(-0.124523 0.0248796 0)
(-0.130063 0.0212365 0)
(-0.134697 0.0169896 0)
(-0.138316 0.0121933 0)
(-0.140822 0.00692412 0)
(-0.142135 0.00128079 0)
(-0.142189 -0.00461745 0)
(-0.14094 -0.0106331 0)
(-0.138368 -0.0166129 0)
(-0.134477 -0.0223919 0)
(-0.1293 -0.0277981 0)
(-0.122901 -0.0326582 0)
(-0.115377 -0.0368044 0)
(-0.106859 -0.0400827 0)
(-0.0975127 -0.0423608 0)
(-0.0875358 -0.0435375 0)
(-0.0771549 -0.0435512 0)
(-0.066618 -0.042387 0)
(-0.0561863 -0.0400826 0)
(-0.0461224 -0.0367303 0)
(-0.0366774 -0.0324765 0)
(-0.0280767 -0.0275176 0)
(-0.020507 -0.022092 0)
(-0.0141044 -0.0164715 0)
(-0.00894484 -0.0109509 0)
(-0.0050387 -0.0058401 0)
(-0.00232781 -0.00145746 0)
(-0.000686433 0.00187225 0)
(7.51873e-05 0.00381829 0)
(0.000216504 0.00404286 0)
(8.47008e-05 0.00218412 0)
(-0.000287547 0.00250348 0)
(-0.00193411 0.0079688 0)
(-0.00535361 0.013334 0)
(-0.0100026 0.018318 0)
(-0.0156204 0.0228019 0)
(-0.0220443 0.0267573 0)
(-0.0291366 0.0302078 0)
(-0.0367871 0.0331984 0)
(-0.0449081 0.0357722 0)
(-0.0534226 0.0379555 0)
(-0.0622559 0.0397511 0)
(-0.0713291 0.041138 0)
(-0.0805549 0.0420741 0)
(-0.0898352 0.0425025 0)
(-0.0990611 0.0423592 0)
(-0.108114 0.0415798 0)
(-0.116868 0.0401067 0)
(-0.125191 0.0378945 0)
(-0.13295 0.0349151 0)
(-0.140013 0.0311609 0)
(-0.146251 0.026647 0)
(-0.151542 0.0214131 0)
(-0.155771 0.0155239 0)
(-0.158835 0.00906907 0)
(-0.160644 0.00216251 0)
(-0.161122 -0.00505871 0)
(-0.160211 -0.0124364 0)
(-0.157874 -0.0197939 0)
(-0.154099 -0.0269396 0)
(-0.1489 -0.0336718 0)
(-0.142323 -0.0397843 0)
(-0.13445 -0.0450745 0)
(-0.1254 -0.0493516 0)
(-0.11533 -0.0524472 0)
(-0.10444 -0.0542258 0)
(-0.092964 -0.0545966 0)
(-0.0811678 -0.0535233 0)
(-0.0693402 -0.0510323 0)
(-0.0577794 -0.047218 0)
(-0.046779 -0.0422432 0)
(-0.0366114 -0.0363358 0)
(-0.0275106 -0.0297797 0)
(-0.0196575 -0.0229041 0)
(-0.0131679 -0.0160698 0)
(-0.00808409 -0.00965718 0)
(-0.00437159 -0.00405663 0)
(-0.00191949 0.000336759 0)
(-0.000543867 0.00312538 0)
(9.0568e-06 0.00390949 0)
(5.79598e-05 0.00227049 0)
(-0.000344928 0.00359892 0)
(-0.00227543 0.0108563 0)
(-0.00623858 0.0176682 0)
(-0.0115737 0.0238131 0)
(-0.0179627 0.0292309 0)
(-0.0252108 0.0339451 0)
(-0.0331582 0.0380209 0)
(-0.0416807 0.0415331 0)
(-0.0506824 0.0445426 0)
(-0.0600813 0.0470833 0)
(-0.0697991 0.0491576 0)
(-0.0797535 0.050738 0)
(-0.0898542 0.0517728 0)
(-0.1 0.0521946 0)
(-0.110079 0.051929 0)
(-0.119972 0.0509035 0)
(-0.129549 0.0490542 0)
(-0.138679 0.046333 0)
(-0.147229 0.042711 0)
(-0.155064 0.0381828 0)
(-0.162056 0.0327682 0)
(-0.168077 0.0265133 0)
(-0.17301 0.0194914 0)
(-0.176743 0.0118025 0)
(-0.179176 0.00357322 0)
(-0.180218 -0.00504438 0)
(-0.179797 -0.0138742 0)
(-0.177857 -0.0227182 0)
(-0.174362 -0.0313596 0)
(-0.169306 -0.0395675 0)
(-0.16271 -0.047102 0)
(-0.154635 -0.0537226 0)
(-0.14518 -0.0591978 0)
(-0.134491 -0.0633163 0)
(-0.122758 -0.0659004 0)
(-0.110221 -0.0668205 0)
(-0.0971594 -0.066008 0)
(-0.0838877 -0.0634682 0)
(-0.0707422 -0.0592883 0)
(-0.0580641 -0.053641 0)
(-0.0461801 -0.0467821 0)
(-0.0353817 -0.0390417 0)
(-0.0259057 -0.0308099 0)
(-0.0179181 -0.0225204 0)
(-0.0115029 -0.014633 0)
(-0.00665667 -0.00761958 0)
(-0.00328862 -0.00195428 0)
(-0.00122331 0.0018913 0)
(-0.000213392 0.003451 0)
(3.12654e-05 0.00224774 0)
(-0.000399933 0.00487184 0)
(-0.00260115 0.0141732 0)
(-0.00708136 0.0226029 0)
(-0.0130678 0.0300196 0)
(-0.0201873 0.0364396 0)
(-0.0282147 0.0419525 0)
(-0.0369687 0.0466758 0)
(-0.0463121 0.050721 0)
(-0.0561412 0.0541713 0)
(-0.0663699 0.0570706 0)
(-0.0769171 0.0594219 0)
(-0.0876988 0.0611916 0)
(-0.098623 0.062319 0)
(-0.109588 0.0627263 0)
(-0.120481 0.0623295 0)
(-0.131182 0.0610482 0)
(-0.141564 0.0588134 0)
(-0.151497 0.0555738 0)
(-0.160846 0.0513001 0)
(-0.16948 0.0459883 0)
(-0.177267 0.0396611 0)
(-0.184079 0.0323693 0)
(-0.189792 0.0241923 0)
(-0.194287 0.0152376 0)
(-0.197453 0.00564133 0)
(-0.199186 -0.00443262 0)
(-0.199395 -0.0147933 0)
(-0.198004 -0.0252243 0)
(-0.194953 -0.0354859 0)
(-0.19021 -0.045319 0)
(-0.18377 -0.0544502 0)
(-0.175663 -0.0625998 0)
(-0.165965 -0.0694914 0)
(-0.154797 -0.0748649 0)
(-0.142337 -0.0784917 0)
(-0.128818 -0.0801922 0)
(-0.114528 -0.0798535 0)
(-0.0998029 -0.0774462 0)
(-0.0850165 -0.073038 0)
(-0.0705606 -0.0668015 0)
(-0.0568237 -0.059014 0)
(-0.0441653 -0.0500496 0)
(-0.0328908 -0.0403631 0)
(-0.0232298 -0.0304683 0)
(-0.0153197 -0.020915 0)
(-0.0091985 -0.0122682 0)
(-0.00480197 -0.005093 0)
(-0.00196659 5.52301e-05 0)
(-0.000451967 0.00263627 0)
(4.37439e-06 0.00210937 0)
(-0.000451231 0.00631222 0)
(-0.00290367 0.0178937 0)
(-0.00786279 0.0281009 0)
(-0.0144517 0.0368925 0)
(-0.0222463 0.0443775 0)
(-0.0309929 0.0507253 0)
(-0.0404904 0.0561154 0)
(-0.0505895 0.060703 0)
(-0.0611796 0.0645981 0)
(-0.072171 0.0678568 0)
(-0.0834808 0.0704841 0)
(-0.0950243 0.0724413 0)
(-0.10671 0.0736591 0)
(-0.118435 0.0740499 0)
(-0.130091 0.0735208 0)
(-0.141558 0.0719843 0)
(-0.152712 0.0693662 0)
(-0.163424 0.0656123 0)
(-0.173563 0.0606921 0)
(-0.182999 0.0546019 0)
(-0.191598 0.047366 0)
(-0.199232 0.0390375 0)
(-0.205772 0.0296991 0)
(-0.211092 0.0194634 0)
(-0.215071 0.00847247 0)
(-0.217593 -0.00310117 0)
(-0.21855 -0.0150552 0)
(-0.217845 -0.0271583 0)
(-0.215396 -0.039151 0)
(-0.211142 -0.0507489 0)
(-0.205046 -0.0616468 0)
(-0.197106 -0.0715254 0)
(-0.187363 -0.0800615 0)
(-0.175909 -0.0869412 0)
(-0.162895 -0.0918768 0)
(-0.148536 -0.0946272 0)
(-0.133119 -0.0950206 0)
(-0.116992 -0.0929768 0)
(-0.100561 -0.0885275 0)
(-0.0842696 -0.0818302 0)
(-0.0685731 -0.0731734 0)
(-0.0539093 -0.0629701 0)
(-0.0406665 -0.0517407 0)
(-0.0291533 -0.0400869 0)
(-0.0195765 -0.0286605 0)
(-0.0120279 -0.0181345 0)
(-0.00647945 -0.0091799 0)
(-0.00278447 -0.0024497 0)
(-0.000710767 0.0014306 0)
(-2.343e-05 0.00184743 0)
(-0.000497373 0.00790587 0)
(-0.00317516 0.0219826 0)
(-0.00856364 0.0341127 0)
(-0.0156929 0.0443726 0)
(-0.0240929 0.0529795 0)
(-0.0334844 0.0601945 0)
(-0.0436484 0.0662684 0)
(-0.0544243 0.0714065 0)
(-0.0656955 0.0757494 0)
(-0.0773692 0.0793684 0)
(-0.0893616 0.0822717 0)
(-0.101588 0.0844168 0)
(-0.113958 0.0857262 0)
(-0.126372 0.0861037 0)
(-0.138722 0.0854479 0)
(-0.150892 0.0836646 0)
(-0.162763 0.0806747 0)
(-0.174207 0.0764207 0)
(-0.185098 0.0708703 0)
(-0.195305 0.0640189 0)
(-0.204699 0.0558905 0)
(-0.213147 0.0465389 0)
(-0.220519 0.0360481 0)
(-0.226686 0.0245327 0)
(-0.231517 0.0121383 0)
(-0.234889 -0.000957587 0)
(-0.236679 -0.0145447 0)
(-0.236774 -0.0283809 0)
(-0.23507 -0.0421919 0)
(-0.231476 -0.055672 0)
(-0.225924 -0.0684879 0)
(-0.218376 -0.0802835 0)
(-0.20883 -0.0906891 0)
(-0.197336 -0.0993341 0)
(-0.184006 -0.105865 0)
(-0.169027 -0.109968 0)
(-0.152664 -0.111398 0)
(-0.135267 -0.110003 0)
(-0.117264 -0.105758 0)
(-0.0991439 -0.0987871 0)
(-0.0814306 -0.0893711 0)
(-0.0646495 -0.0779523 0)
(-0.049286 -0.0651147 0)
(-0.0357465 -0.0515536 0)
(-0.0243256 -0.0380365 0)
(-0.0151863 -0.0253623 0)
(-0.00834964 -0.0143272 0)
(-0.00369319 -0.00570006 0)
(-0.000996153 -0.000207401 0)
(-5.32744e-05 0.00145108 0)
(-0.000536865 0.00963435 0)
(-0.00340779 0.0263956 0)
(-0.0091651 0.0405765 0)
(-0.0167597 0.0523875 0)
(-0.0256822 0.0621667 0)
(-0.035631 0.0702776 0)
(-0.0463711 0.0770502 0)
(-0.0577319 0.0827455 0)
(-0.0695911 0.0875387 0)
(-0.0818533 0.0915186 0)
(-0.0944341 0.0946984 0)
(-0.10725 0.0970328 0)
(-0.120211 0.0984376 0)
(-0.133222 0.098808 0)
(-0.146177 0.0980353 0)
(-0.158965 0.0960186 0)
(-0.171469 0.0926741 0)
(-0.183567 0.0879405 0)
(-0.195135 0.0817831 0)
(-0.206045 0.0741953 0)
(-0.21617 0.0652 0)
(-0.225378 0.0548502 0)
(-0.23354 0.0432295 0)
(-0.240525 0.0304529 0)
(-0.246201 0.0166672 0)
(-0.250437 0.00205211 0)
(-0.253106 -0.0131786 0)
(-0.254081 -0.0287767 0)
(-0.253238 -0.044458 0)
(-0.250465 -0.0599023 0)
(-0.24566 -0.0747545 0)
(-0.238743 -0.0886272 0)
(-0.229668 -0.101108 0)
(-0.218432 -0.11177 0)
(-0.205097 -0.12019 0)
(-0.189798 -0.125973 0)
(-0.172765 -0.128783 0)
(-0.154328 -0.128379 0)
(-0.13492 -0.124652 0)
(-0.115063 -0.117664 0)
(-0.0953478 -0.107667 0)
(-0.0763908 -0.0951123 0)
(-0.0587881 -0.0806402 0)
(-0.0430635 -0.0650429 0)
(-0.0296226 -0.0492167 0)
(-0.0187211 -0.0341073 0)
(-0.0104466 -0.0206605 0)
(-0.00471267 -0.00978475 0)
(-0.00131608 -0.00232821 0)
(-8.65965e-05 0.000905569 0)
(-0.000568257 0.011475 0)
(-0.00359409 0.031079 0)
(-0.0096494 0.0474191 0)
(-0.0176226 0.0608521 0)
(-0.0269725 0.0718475 0)
(-0.0373786 0.0808792 0)
(-0.0485922 0.0883632 0)
(-0.0604334 0.0946208 0)
(-0.0727746 0.0998656 0)
(-0.085518 0.104206 0)
(-0.0985785 0.107662 0)
(-0.111873 0.110188 0)
(-0.125315 0.111692 0)
(-0.138811 0.112062 0)
(-0.152259 0.111183 0)
(-0.165552 0.108948 0)
(-0.178576 0.105268 0)
(-0.191215 0.100077 0)
(-0.203346 0.0933386 0)
(-0.214848 0.0850432 0)
(-0.225594 0.0752123 0)
(-0.235459 0.0638977 0)
(-0.244316 0.0511821 0)
(-0.252038 0.0371799 0)
(-0.258497 0.0220377 0)
(-0.263564 0.00593472 0)
(-0.267108 -0.0109156 0)
(-0.268999 -0.0282635 0)
(-0.269102 -0.0458223 0)
(-0.267284 -0.0632652 0)
(-0.263413 -0.0802239 0)
(-0.257372 -0.0962889 0)
(-0.249062 -0.111012 0)
(-0.238423 -0.123917 0)
(-0.22545 -0.13451 0)
(-0.210212 -0.14231 0)
(-0.19288 -0.146876 0)
(-0.173739 -0.147855 0)
(-0.153204 -0.14503 0)
(-0.131811 -0.138364 0)
(-0.110203 -0.128046 0)
(-0.0890872 -0.114513 0)
(-0.0691801 -0.0984404 0)
(-0.0511426 -0.0807157 0)
(-0.0355171 -0.0623755 0)
(-0.022679 -0.044535 0)
(-0.0128062 -0.0283191 0)
(-0.00586473 -0.0148062 0)
(-0.00167947 -0.00499273 0)
(-0.00012503 0.000191575 0)
(-0.000590222 0.0134014 0)
(-0.00372731 0.035971 0)
(-0.0100005 0.0545567 0)
(-0.0182551 0.0696701 0)
(-0.0279263 0.0819185 0)
(-0.0386789 0.0918922 0)
(-0.0502521 0.100098 0)
(-0.0624578 0.106921 0)
(-0.0751631 0.112617 0)
(-0.0882673 0.117316 0)
(-0.101684 0.121047 0)
(-0.115332 0.123762 0)
(-0.129126 0.125367 0)
(-0.142974 0.125743 0)
(-0.15678 0.124767 0)
(-0.170437 0.122326 0)
(-0.183839 0.118326 0)
(-0.19687 0.112699 0)
(-0.209414 0.105404 0)
(-0.221353 0.0964298 0)
(-0.232568 0.0857973 0)
(-0.242938 0.0735574 0)
(-0.252347 0.0597926 0)
(-0.260675 0.0446169 0)
(-0.267803 0.0281756 0)
(-0.273613 0.0106461 0)
(-0.27798 -0.00776176 0)
(-0.280775 -0.0268023 0)
(-0.281861 -0.0461938 0)
(-0.281092 -0.0656119 0)
(-0.278314 -0.0846867 0)
(-0.273374 -0.102998 0)
(-0.266123 -0.120076 0)
(-0.256437 -0.135401 0)
(-0.244234 -0.148419 0)
(-0.229502 -0.15856 0)
(-0.212329 -0.165272 0)
(-0.192928 -0.168069 0)
(-0.171662 -0.166593 0)
(-0.149055 -0.160676 0)
(-0.12578 -0.150399 0)
(-0.102622 -0.13614 0)
(-0.0804208 -0.118587 0)
(-0.0599925 -0.0987047 0)
(-0.0420432 -0.077678 0)
(-0.0271005 -0.056815 0)
(-0.0154625 -0.0374538 0)
(-0.00717122 -0.02088 0)
(-0.00209552 -0.00827266 0)
(-0.000170303 -0.000715091 0)
(-0.00060165 0.0153834 0)
(-0.00380177 0.0410024 0)
(-0.0102051 0.0618965 0)
(-0.0186346 0.0787351 0)
(-0.0285119 0.0922661 0)
(-0.0394905 0.103199 0)
(-0.0513001 0.112134 0)
(-0.0637444 0.119524 0)
(-0.0766851 0.125668 0)
(-0.0900182 0.13072 0)
(-0.103656 0.13472 0)
(-0.117517 0.137621 0)
(-0.131517 0.139324 0)
(-0.145566 0.139706 0)
(-0.159571 0.138635 0)
(-0.17343 0.135995 0)
(-0.187037 0.131687 0)
(-0.200282 0.125639 0)
(-0.213056 0.117808 0)
(-0.225244 0.108182 0)
(-0.236736 0.0967819 0)
(-0.247422 0.0836602 0)
(-0.257197 0.0689006 0)
(-0.265955 0.0526179 0)
(-0.273595 0.0349569 0)
(-0.280012 0.0160917 0)
(-0.285097 -0.00377367 0)
(-0.288731 -0.0244042 0)
(-0.290785 -0.0455286 0)
(-0.291109 -0.0668357 0)
(-0.289536 -0.0879663 0)
(-0.285882 -0.108505 0)
(-0.279955 -0.127975 0)
(-0.271568 -0.145831 0)
(-0.260556 -0.161469 0)
(-0.246813 -0.174238 0)
(-0.230322 -0.183474 0)
(-0.211195 -0.188545 0)
(-0.189711 -0.188923 0)
(-0.16634 -0.184265 0)
(-0.141752 -0.174496 0)
(-0.116788 -0.159884 0)
(-0.0924036 -0.141077 0)
(-0.0695783 -0.119096 0)
(-0.0492094 -0.095267 0)
(-0.0320127 -0.0711129 0)
(-0.018444 -0.0482222 0)
(-0.00865207 -0.0281334 0)
(-0.00257307 -0.0122501 0)
(-0.000224136 -0.00184357 0)
(-0.000601719 0.0173884 0)
(-0.0038132 0.0460984 0)
(-0.0102528 0.0693381 0)
(-0.0187442 0.0879326 0)
(-0.0287048 0.102768 0)
(-0.0397816 0.114674 0)
(-0.0516963 0.124343 0)
(-0.0642452 0.132298 0)
(-0.077284 0.138883 0)
(-0.0907043 0.144279 0)
(-0.104416 0.148537 0)
(-0.118337 0.151614 0)
(-0.132383 0.153407 0)
(-0.146467 0.153786 0)
(-0.160497 0.152618 0)
(-0.174373 0.149779 0)
(-0.187994 0.145165 0)
(-0.201255 0.138703 0)
(-0.214049 0.13035 0)
(-0.226273 0.120094 0)
(-0.237826 0.10796 0)
(-0.24861 0.0940016 0)
(-0.258536 0.0783082 0)
(-0.267519 0.0609971 0)
(-0.275475 0.0422137 0)
(-0.282325 0.0221291 0)
(-0.287979 0.000939335 0)
(-0.29234 -0.0211345 0)
(-0.295292 -0.0438389 0)
(-0.296693 -0.0668855 0)
(-0.296373 -0.0899389 0)
(-0.294132 -0.112605 0)
(-0.289741 -0.134418 0)
(-0.282955 -0.154828 0)
(-0.273532 -0.173202 0)
(-0.261261 -0.188823 0)
(-0.246006 -0.200919 0)
(-0.227752 -0.20871 0)
(-0.206655 -0.211478 0)
(-0.183091 -0.208663 0)
(-0.15768 -0.199977 0)
(-0.131282 -0.18551 0)
(-0.104944 -0.165812 0)
(-0.07981 -0.141907 0)
(-0.0569892 -0.115247 0)
(-0.0374231 -0.0875788 0)
(-0.0217696 -0.0607824 0)
(-0.0103236 -0.0367012 0)
(-0.00312007 -0.0170159 0)
(-0.000288231 -0.00322758 0)
(-0.000589971 0.0193818 0)
(-0.00375908 0.0511799 0)
(-0.0101373 0.0767758 0)
(-0.0185727 0.0971421 0)
(-0.0284889 0.113297 0)
(-0.0395308 0.126184 0)
(-0.051414 0.136589 0)
(-0.0639276 0.145104 0)
(-0.0769207 0.152119 0)
(-0.0902796 0.157844 0)
(-0.103911 0.162344 0)
(-0.11773 0.165578 0)
(-0.131654 0.167444 0)
(-0.145595 0.167808 0)
(-0.159463 0.166529 0)
(-0.173162 0.16348 0)
(-0.186593 0.158555 0)
(-0.199656 0.15168 0)
(-0.212253 0.142811 0)
(-0.224288 0.131943 0)
(-0.235672 0.119104 0)
(-0.246325 0.104356 0)
(-0.256175 0.0877942 0)
(-0.265159 0.0695421 0)
(-0.273219 0.0497475 0)
(-0.280301 0.0285795 0)
(-0.286344 0.00622537 0)
(-0.291277 -0.0171088 0)
(-0.295006 -0.0411943 0)
(-0.297409 -0.0657739 0)
(-0.298325 -0.0905482 0)
(-0.297548 -0.11516 0)
(-0.294828 -0.139176 0)
(-0.289874 -0.162067 0)
(-0.282373 -0.183191 0)
(-0.272016 -0.201794 0)
(-0.258537 -0.217016 0)
(-0.241775 -0.227931 0)
(-0.221732 -0.23362 0)
(-0.198641 -0.233277 0)
(-0.173022 -0.226342 0)
(-0.145698 -0.212653 0)
(-0.117772 -0.192575 0)
(-0.0905333 -0.167068 0)
(-0.0653128 -0.137663 0)
(-0.043314 -0.106333 0)
(-0.0254452 -0.0752836 0)
(-0.0121966 -0.0467213 0)
(-0.00374305 -0.0226676 0)
(-0.000364156 -0.00490481 0)
(-0.000566356 0.0213282 0)
(-0.00363883 0.0561655 0)
(-0.00985669 0.0841009 0)
(-0.0181163 0.106239 0)
(-0.027858 0.12372 0)
(-0.0387289 0.137591 0)
(-0.0504407 0.148731 0)
(-0.062776 0.157797 0)
(-0.0755763 0.165227 0)
(-0.0887215 0.171261 0)
(-0.102114 0.175979 0)
(-0.115666 0.179347 0)
(-0.129294 0.181261 0)
(-0.14291 0.181584 0)
(-0.156427 0.180173 0)
(-0.169749 0.176896 0)
(-0.182785 0.171646 0)
(-0.195438 0.16435 0)
(-0.207618 0.154968 0)
(-0.219242 0.143501 0)
(-0.230234 0.129985 0)
(-0.24053 0.114493 0)
(-0.250081 0.0971315 0)
(-0.258845 0.0780314 0)
(-0.266794 0.0573461 0)
(-0.2739 0.0352441 0)
(-0.280136 0.0119046 0)
(-0.285458 -0.012483 0)
(-0.289806 -0.037717 0)
(-0.293083 -0.0635783 0)
(-0.295149 -0.0898136 0)
(-0.295806 -0.116118 0)
(-0.2948 -0.142109 0)
(-0.291812 -0.167303 0)
(-0.286474 -0.191083 0)
(-0.278387 -0.212685 0)
(-0.267163 -0.23119 0)
(-0.252484 -0.245551 0)
(-0.234171 -0.254652 0)
(-0.212276 -0.257418 0)
(-0.18716 -0.252967 0)
(-0.159548 -0.240806 0)
(-0.130537 -0.221017 0)
(-0.101526 -0.194396 0)
(-0.0740623 -0.162484 0)
(-0.0496374 -0.127452 0)
(-0.0294609 -0.0918554 0)
(-0.0142752 -0.0583281 0)
(-0.0044466 -0.0293062 0)
(-0.000453309 -0.00691607 0)
(-0.000531267 0.0231923 0)
(-0.00345399 0.0609744 0)
(-0.00941387 0.0912043 0)
(-0.0173786 0.1151 0)
(-0.0268159 0.133903 0)
(-0.0373797 0.148759 0)
(-0.0487803 0.160627 0)
(-0.0607938 0.170231 0)
(-0.0732537 0.178057 0)
(-0.0860328 0.184374 0)
(-0.0990277 0.18928 0)
(-0.112148 0.192749 0)
(-0.125307 0.194678 0)
(-0.138419 0.194929 0)
(-0.151397 0.193356 0)
(-0.164152 0.189826 0)
(-0.176593 0.184232 0)
(-0.188634 0.176502 0)
(-0.200194 0.166605 0)
(-0.2112 0.15455 0)
(-0.221593 0.140385 0)
(-0.231329 0.124197 0)
(-0.240376 0.106105 0)
(-0.24872 0.0862523 0)
(-0.256358 0.0648006 0)
(-0.263292 0.0419198 0)
(-0.269525 0.0177827 0)
(-0.275048 -0.00743831 0)
(-0.279832 -0.0335693 0)
(-0.283817 -0.0604326 0)
(-0.286889 -0.0878277 0)
(-0.288877 -0.115513 0)
(-0.289535 -0.143176 0)
(-0.288538 -0.170402 0)
(-0.285484 -0.196629 0)
(-0.279906 -0.221121 0)
(-0.271309 -0.242941 0)
(-0.259219 -0.260952 0)
(-0.24327 -0.273866 0)
(-0.223296 -0.280336 0)
(-0.199446 -0.279126 0)
(-0.17228 -0.269335 0)
(-0.142817 -0.250653 0)
(-0.112501 -0.223588 0)
(-0.0830693 -0.189583 0)
(-0.0563126 -0.150948 0)
(-0.0337887 -0.110596 0)
(-0.0165557 -0.0716449 0)
(-0.00523309 -0.0370322 0)
(-0.000556875 -0.00930427 0)
(-0.000485542 0.0249405 0)
(-0.00320826 0.0655279 0)
(-0.00881665 0.0979795 0)
(-0.0163714 0.1236 0)
(-0.0253776 0.143714 0)
(-0.035501 0.159549 0)
(-0.0464529 0.172136 0)
(-0.0580038 0.182262 0)
(-0.0699789 0.190459 0)
(-0.082243 0.197028 0)
(-0.0946864 0.202086 0)
(-0.107215 0.205617 0)
(-0.11974 0.207523 0)
(-0.132177 0.207664 0)
(-0.144441 0.205894 0)
(-0.156448 0.202081 0)
(-0.168114 0.196118 0)
(-0.179361 0.187942 0)
(-0.190119 0.177528 0)
(-0.20033 0.164896 0)
(-0.209949 0.150111 0)
(-0.218951 0.133276 0)
(-0.227326 0.114525 0)
(-0.235082 0.0940174 0)
(-0.24224 0.0719238 0)
(-0.248831 0.0484188 0)
(-0.254887 0.0236715 0)
(-0.260429 -0.00216032 0)
(-0.265466 -0.0289356 0)
(-0.269972 -0.0565114 0)
(-0.27387 -0.0847443 0)
(-0.277021 -0.113464 0)
(-0.279208 -0.142441 0)
(-0.28012 -0.171349 0)
(-0.279346 -0.199712 0)
(-0.276379 -0.226861 0)
(-0.270638 -0.251885 0)
(-0.261519 -0.273607 0)
(-0.248465 -0.290605 0)
(-0.23108 -0.301284 0)
(-0.20926 -0.30404 0)
(-0.183329 -0.297505 0)
(-0.154145 -0.280868 0)
(-0.123119 -0.254208 0)
(-0.0921187 -0.218722 0)
(-0.0632257 -0.176759 0)
(-0.0383817 -0.131558 0)
(-0.0190256 -0.0867762 0)
(-0.00610237 -0.0459418 0)
(-0.000675791 -0.0121131 0)
(-0.000430443 0.0265418 0)
(-0.00290751 0.0697526 0)
(-0.00807779 0.104325 0)
(-0.0151143 0.131622 0)
(-0.0235692 0.153026 0)
(-0.0331246 0.169827 0)
(-0.0434959 0.183122 0)
(-0.0544491 0.19375 0)
(-0.0658011 0.202289 0)
(-0.0774083 0.209074 0)
(-0.0891543 0.214244 0)
(-0.100941 0.217794 0)
(-0.112678 0.219632 0)
(-0.124283 0.219622 0)
(-0.135675 0.217618 0)
(-0.146775 0.21349 0)
(-0.157508 0.207137 0)
(-0.167807 0.198502 0)
(-0.177614 0.187571 0)
(-0.186885 0.174379 0)
(-0.195593 0.159008 0)
(-0.20373 0.141579 0)
(-0.211305 0.122244 0)
(-0.218347 0.101177 0)
(-0.224898 0.0785629 0)
(-0.231013 0.0545815 0)
(-0.236748 0.0294005 0)
(-0.24216 0.00316532 0)
(-0.247282 -0.0240062 0)
(-0.25212 -0.0520103 0)
(-0.256643 -0.0807589 0)
(-0.260754 -0.110154 0)
(-0.264272 -0.140057 0)
(-0.26692 -0.170245 0)
(-0.268303 -0.200353 0)
(-0.267905 -0.229814 0)
(-0.265096 -0.257791 0)
(-0.259167 -0.283125 0)
(-0.249395 -0.304318 0)
(-0.235156 -0.319572 0)
(-0.216066 -0.326929 0)
(-0.192158 -0.324523 0)
(-0.164043 -0.310949 0)
(-0.133004 -0.285698 0)
(-0.100957 -0.249548 0)
(-0.0702322 -0.204729 0)
(-0.0431736 -0.15474 0)
(-0.0216634 -0.103799 0)
(-0.00705157 -0.0561222 0)
(-0.000810709 -0.015386 0)
(-0.000367616 0.0279687 0)
(-0.00255955 0.0735821 0)
(-0.00721482 0.110149 0)
(-0.0136349 0.139056 0)
(-0.0214273 0.161718 0)
(-0.0302959 0.179469 0)
(-0.039963 0.193454 0)