/*--------------------------------*- C++ -*----------------------------------*\
| =========                 |                                                 |
| \\      /  F ield         | OpenFOAM: The Open Source CFD Toolbox           |
|  \\    /   O peration     | Version:  2312                                  |
|   \\  /    A nd           | Website:  www.openfoam.com                      |
|    \\/     M anipulation  |                                                 |
\*---------------------------------------------------------------------------*/
FoamFile
{
    version     2.0;
    format      ascii;
    arch        "LSB;label=32;scalar=64";
    class       volVectorField;
    location    "50";
    object      U;
}
// * * * * * * * * * * * * * * * * * * * * * * * * * * * * * * * * * * * * * //

dimensions      [0 1 -1 0 0 0 0];

internalField   nonuniform List<vector> 
10201
(
(-2.42607e-05 2.37497e-05 0)
(-2.62302e-05 -2.10874e-06 0)
(9.17086e-05 -4.8728e-05 0)
(0.000349136 -9.7543e-05 0)
(0.000723261 -0.000134766 0)
(0.00117352 -0.000154345 0)
(0.00165025 -0.000156118 0)
(0.0021083 -0.000144011 0)
(0.00251565 -0.000124088 0)
(0.00285713 -0.000102725 0)
(0.00313388 -8.52568e-05 0)
(0.00335979 -7.52571e-05 0)
(0.00355681 -7.44032e-05 0)
(0.00375 -8.27078e-05 0)
(0.00396328 -9.88888e-05 0)
(0.0042159 -0.000120707 0)
(0.00451987 -0.000145256 0)
(0.00487819 -0.00016929 0)
(0.00528428 -0.000189659 0)
(0.00572276 -0.000203854 0)
(0.00617168 -0.000210506 0)
(0.00660562 -0.000209617 0)
(0.00699906 -0.000202427 0)
(0.00732882 -0.000190837 0)
(0.00757499 -0.000176809 0)
(0.00771998 -0.000161151 0)
(0.0077463 -0.000143651 0)
(0.00763475 -0.000123058 0)
(0.00736241 -9.71751e-05 0)
(0.00690234 -6.40014e-05 0)
(0.00622489 -2.1747e-05 0)
(0.00529947 3.10971e-05 0)
(0.00409702 9.53074e-05 0)
(0.00259253 0.000171148 0)
(0.000767132 0.00025819 0)
(-0.00139326 0.000355361 0)
(-0.00389082 0.00046437 0)
(-0.00671564 0.000585062 0)
(-0.00985132 0.000718147 0)
(-0.0132731 0.000862942 0)
(-0.0169498 0.0010162 0)
(-0.0208445 0.00117231 0)
(-0.024915 0.00132436 0)
(-0.0291143 0.00146539 0)
(-0.0333914 0.00158933 0)
(-0.0376921 0.00169135 0)
(-0.0419597 0.00176774 0)
(-0.0461353 0.00181567 0)
(-0.0501574 0.00183286 0)
(-0.0539622 0.00181739 0)
(-0.057483 0.00176772 0)
(-0.060651 0.00168311 0)
(-0.0633963 0.00156262 0)
(-0.0656472 0.00140168 0)
(-0.0673297 0.00119248 0)
(-0.068371 0.000931073 0)
(-0.0687042 0.000625316 0)
(-0.0682276 0.000315326 0)
(-0.0668478 -5.48347e-05 0)
(-0.0645624 -0.00047149 0)
(-0.0613326 -0.00091412 0)
(-0.057136 -0.00136722 0)
(-0.0519826 -0.0018154 0)
(-0.0459156 -0.00224082 0)
(-0.0390154 -0.00262309 0)
(-0.0314021 -0.00294029 0)
(-0.0232371 -0.00317029 0)
(-0.0147209 -0.00329271 0)
(-0.00608546 -0.00329151 0)
(0.00240945 -0.00315905 0)
(0.0104894 -0.00289028 0)
(0.017888 -0.00249477 0)
(0.0243518 -0.00198494 0)
(0.0296745 -0.00140738 0)
(0.033714 -0.000790222 0)
(0.036394 -0.00018086 0)
(0.0377214 0.000378244 0)
(0.0377795 0.000847297 0)
(0.0367191 0.00120408 0)
(0.0347338 0.00144381 0)
(0.0320448 0.00156364 0)
(0.0288876 0.00157194 0)
(0.0254914 0.00149091 0)
(0.0220603 0.00134939 0)
(0.0187598 0.00117556 0)
(0.0157107 0.000993009 0)
(0.0129879 0.00081901 0)
(0.0106233 0.000664346 0)
(0.00861412 0.000534128 0)
(0.00693308 0.000429167 0)
(0.00553927 0.000347397 0)
(0.00438733 0.000285115 0)
(0.0034343 0.000237922 0)
(0.00264371 0.000201431 0)
(0.00198715 0.000171872 0)
(0.00144339 0.000146634 0)
(0.000995925 0.000124488 0)
(0.00063023 0.000104814 0)
(0.000333375 8.46347e-05 0)
(0.000104403 5.36764e-05 0)
(4.06549e-06 3.41787e-06 0)
(-4.78077e-06 2.72503e-05 0)
(0.000106671 -0.000125576 0)
(0.000479123 -0.000354716 0)
(0.00112255 -0.000584391 0)
(0.00199423 -0.000759038 0)
(0.00301057 -0.000850362 0)
(0.00407158 -0.000855532 0)
(0.00508569 -0.000790832 0)
(0.00598595 -0.000683316 0)
(0.00673739 -0.000562708 0)
(0.00733679 -0.000455142 0)
(0.00780692 -0.000379444 0)
(0.00818787 -0.00034581 0)
(0.00852753 -0.000356156 0)
(0.00887248 -0.000405343 0)
(0.00926019 -0.000482653 0)
(0.00971281 -0.00057336 0)
(0.0102331 -0.000660573 0)
(0.0108026 -0.000727442 0)
(0.0113832 -0.000759709 0)
(0.0119209 -0.000747884 0)
(0.0123514 -0.000688139 0)
(0.0126061 -0.000581865 0)
(0.0126162 -0.000433252 0)
(0.0123148 -0.000246286 0)
(0.0116366 -2.24638e-05 0)
(0.0105138 0.000239888 0)
(0.0088764 0.000545496 0)
(0.0066511 0.000902101 0)
(0.00376438 0.00131483 0)
(0.000149735 0.00178646 0)
(-0.00424591 0.00231564 0)
(-0.00945357 0.00289703 0)
(-0.0154747 0.00352208 0)
(-0.0222777 0.00417794 0)
(-0.0297976 0.00484506 0)
(-0.037938 0.00550039 0)
(-0.0465769 0.00611604 0)
(-0.0555752 0.00666864 0)
(-0.0647857 0.00714061 0)
(-0.0740627 0.00752014 0)
(-0.0832688 0.00780015 0)
(-0.0922798 0.00797716 0)
(-0.100985 0.0080502 0)
(-0.109285 0.00801975 0)
(-0.117093 0.00788678 0)
(-0.124328 0.00765182 0)
(-0.130916 0.00731457 0)
(-0.136785 0.0068738 0)
(-0.141866 0.00632728 0)
(-0.14609 0.00567243 0)
(-0.149392 0.00490663 0)
(-0.151712 0.00402555 0)
(-0.15299 0.0030249 0)
(-0.153161 0.00190869 0)
(-0.152168 0.000691906 0)
(-0.149907 -0.000614278 0)
(-0.146375 -0.00199644 0)
(-0.141524 -0.00347792 0)
(-0.135322 -0.00502594 0)
(-0.127764 -0.0066072 0)
(-0.118867 -0.00818328 0)
(-0.108676 -0.00970903 0)
(-0.0972661 -0.0111326 0)
(-0.08475 -0.0123959 0)
(-0.0712821 -0.0134371 0)
(-0.0570603 -0.0141935 0)
(-0.0423259 -0.0146063 0)
(-0.0273599 -0.0146264 0)
(-0.0124754 -0.0142233 0)
(0.001986 -0.013386 0)
(0.015681 -0.0121308 0)
(0.0282479 -0.0104497 0)
(0.0393721 -0.00850021 0)
(0.0488063 -0.00632045 0)
(0.0563343 -0.00405825 0)
(0.0618371 -0.00182001 0)
(0.0652788 0.000275773 0)
(0.066722 0.00212814 0)
(0.0662853 0.00365466 0)
(0.0641449 0.00482064 0)
(0.0605526 0.00560084 0)
(0.0558196 0.00599806 0)
(0.0502917 0.00604694 0)
(0.0443268 0.00580749 0)
(0.0382686 0.00535627 0)
(0.0324144 0.00477572 0)
(0.0269886 0.00414263 0)
(0.0221307 0.00351862 0)
(0.0179 0.0029454 0)
(0.0142919 0.00244485 0)
(0.0112607 0.00202255 0)
(0.00874073 0.00167282 0)
(0.00666165 0.00138382 0)
(0.00495872 0.00114241 0)
(0.00357579 0.000938067 0)
(0.00246396 0.00076479 0)
(0.00157831 0.000618536 0)
(0.000876701 0.000486749 0)
(0.0003406 0.000331769 0)
(5.71799e-05 0.000105521 0)
(2.4866e-05 -6.37687e-05 0)
(0.000275089 -0.000476124 0)
(0.000909926 -0.0010195 0)
(0.0018917 -0.00154437 0)
(0.00315141 -0.00193615 0)
(0.00457469 -0.00213342 0)
(0.00603007 -0.00212984 0)
(0.00739984 -0.00196158 0)
(0.00859896 -0.00168923 0)
(0.00958274 -0.00137997 0)
(0.0103456 -0.00109382 0)
(0.0109136 -0.000875139 0)
(0.0113338 -0.000749058 0)
(0.0116622 -0.000721437 0)
(0.0119519 -0.000780937 0)
(0.0122429 -0.000902104 0)
(0.0125528 -0.00104903 0)
(0.012872 -0.00118001 0)
(0.0131604 -0.00125278 0)
(0.0133498 -0.00123064 0)
(0.0133489 -0.00108731 0)
(0.0130509 -0.000808508 0)
(0.0123401 -0.000390753 0)
(0.0110978 0.000163042 0)
(0.00920329 0.000849219 0)
(0.00653462 0.00166922 0)
(0.00296886 0.00262773 0)
(-0.00161069 0.0037329 0)
(-0.00730952 0.00499089 0)
(-0.0142071 0.00640053 0)
(-0.0223369 0.00794858 0)
(-0.0316721 0.00960293 0)
(-0.0421135 0.0113072 0)
(-0.0534868 0.0129829 0)
(-0.0655577 0.0145434 0)
(-0.0780609 0.0159111 0)
(-0.0907342 0.017031 0)
(-0.103343 0.0178732 0)
(-0.115692 0.0184317 0)
(-0.127623 0.0187163 0)
(-0.139015 0.0187464 0)
(-0.149773 0.0185445 0)
(-0.159823 0.0181325 0)
(-0.16911 0.0175295 0)
(-0.177585 0.0167509 0)
(-0.185212 0.015808 0)
(-0.191954 0.0147077 0)
(-0.197781 0.0134537 0)
(-0.20266 0.0120466 0)
(-0.20656 0.0104841 0)
(-0.209446 0.00876236 0)
(-0.211286 0.00687885 0)
(-0.212046 0.00483661 0)
(-0.211685 0.00264071 0)
(-0.210168 0.000283493 0)
(-0.207443 -0.00220647 0)
(-0.203475 -0.00483257 0)
(-0.198254 -0.00759866 0)
(-0.191735 -0.0104606 0)
(-0.183894 -0.0133899 0)
(-0.174719 -0.016344 0)
(-0.164215 -0.0192654 0)
(-0.152407 -0.0220826 0)
(-0.139346 -0.0247117 0)
(-0.125116 -0.0270578 0)
(-0.109834 -0.0290178 0)
(-0.0936601 -0.0304853 0)
(-0.0767998 -0.0313571 0)
(-0.0595019 -0.0315428 0)
(-0.0420581 -0.0309753 0)
(-0.0247927 -0.0296224 0)
(-0.00800901 -0.0274881 0)
(0.00784555 -0.0246295 0)
(0.0224475 -0.0211506 0)
(0.0355412 -0.0171369 0)
(0.0468122 -0.0128746 0)
(0.0561061 -0.00849001 0)
(0.0632862 -0.0041968 0)
(0.0683089 -0.000159133 0)
(0.0712097 0.00345998 0)
(0.0720732 0.00654032 0)
(0.0710067 0.00901258 0)
(0.068198 0.0108198 0)
(0.0638997 0.0119326 0)
(0.058425 0.0123638 0)
(0.0521434 0.0121771 0)
(0.0454565 0.0114872 0)
(0.038753 0.0104457 0)
(0.0323604 0.00921406 0)
(0.0265113 0.00793507 0)
(0.0213358 0.0067135 0)
(0.0168749 0.00561061 0)
(0.0131073 0.00464963 0)
(0.00997548 0.00382748 0)
(0.0074072 0.00312821 0)
(0.00532775 0.00253466 0)
(0.00366475 0.00203508 0)
(0.00234862 0.0016194 0)
(0.0013131 0.00125955 0)
(0.000524909 0.000877549 0)
(9.61719e-05 0.000348233 0)
(5.07794e-05 -0.000246639 0)
(0.000432462 -0.00103415 0)
(0.00131742 -0.00196948 0)
(0.00260559 -0.00283697 0)
(0.00418944 -0.00346157 0)
(0.00592182 -0.00375115 0)
(0.00764441 -0.00370184 0)
(0.00922261 -0.00337747 0)
(0.0105643 -0.00287957 0)
(0.0116246 -0.00231858 0)
(0.0124017 -0.00179216 0)
(0.0129264 -0.00137201 0)
(0.0132487 -0.00109815 0)
(0.0134246 -0.000978488 0)
(0.0135019 -0.000991653 0)
(0.0135081 -0.00109158 0)
(0.0134403 -0.00121364 0)
(0.0132583 -0.00128299 0)
(0.0128827 -0.0012235 0)
(0.012198 -0.000968734 0)
(0.0110611 -0.000469311 0)
(0.00931023 0.000303377 0)
(0.0067729 0.00136124 0)
(0.00327179 0.00270592 0)
(-0.00136829 0.0043366 0)
(-0.00731732 0.00625477 0)
(-0.0147268 0.00846196 0)
(-0.023704 0.0109524 0)
(-0.0342839 0.0136962 0)
(-0.046394 0.0166225 0)
(-0.0598306 0.0196048 0)
(-0.07427 0.0224759 0)
(-0.08932 0.0250685 0)
(-0.10459 0.0272542 0)
(-0.119742 0.0289616 0)
(-0.134514 0.0301705 0)
(-0.148713 0.0308968 0)
(-0.162206 0.0311769 0)
(-0.174909 0.0310564 0)
(-0.186766 0.0305825 0)
(-0.197748 0.0297998 0)
(-0.207838 0.0287474 0)
(-0.217031 0.0274582 0)
(-0.225326 0.0259581 0)
(-0.232723 0.0242662 0)
(-0.239222 0.0223955 0)
(-0.244823 0.0203534 0)
(-0.249522 0.0181422 0)
(-0.25331 0.015761 0)
(-0.256177 0.013205 0)
(-0.258104 0.0104672 0)
(-0.259066 0.00754453 0)
(-0.259036 0.00443949 0)
(-0.258002 0.00115156 0)
(-0.255917 -0.00230866 0)
(-0.252722 -0.00596514 0)
(-0.248417 -0.0098114 0)
(-0.242942 -0.0138255 0)
(-0.236253 -0.0179725 0)
(-0.228306 -0.0222128 0)
(-0.219063 -0.0264902 0)
(-0.208499 -0.0307333 0)
(-0.196602 -0.0348511 0)
(-0.183382 -0.0387338 0)
(-0.168873 -0.0422543 0)
(-0.153149 -0.0452705 0)
(-0.136321 -0.0476316 0)
(-0.118552 -0.0491867 0)
(-0.100054 -0.0497963 0)
(-0.0810938 -0.049347 0)
(-0.0619877 -0.0477655 0)
(-0.04309 -0.0450373 0)
(-0.0248048 -0.0412556 0)
(-0.0074477 -0.0364565 0)
(0.00851791 -0.0308927 0)
(0.0227955 -0.0247904 0)
(0.0352341 -0.0183696 0)
(0.0456175 -0.0119902 0)
(0.0538994 -0.00583242 0)
(0.0600614 -0.000101293 0)
(0.0641753 0.00503003 0)
(0.0663142 0.00943998 0)
(0.0665474 0.0130367 0)
(0.0649926 0.0157358 0)
(0.0618216 0.0174766 0)
(0.0572794 0.0182481 0)
(0.0516949 0.0181127 0)
(0.0454626 0.0172151 0)
(0.0389952 0.0157645 0)
(0.0326651 0.0139941 0)
(0.0267586 0.0121158 0)
(0.0214562 0.0102886 0)
(0.0168409 0.00860828 0)
(0.0129208 0.00711619 0)
(0.00965693 0.00581789 0)
(0.00698435 0.0047039 0)
(0.00482685 0.00376336 0)
(0.00310465 0.00298133 0)
(0.00173988 0.00231034 0)
(0.000697226 0.0016202 0)
(0.000128505 0.00068149 0)
(7.02188e-05 -0.00050613 0)
(0.000571597 -0.00178425 0)
(0.00169396 -0.00318214 0)
(0.00326514 -0.00441976 0)
(0.00512761 -0.00526453 0)
(0.0070938 -0.00560204 0)
(0.00897753 -0.00544298 0)
(0.0106324 -0.00489103 0)
(0.0119678 -0.00409769 0)
(0.0129484 -0.00322133 0)
(0.0135832 -0.00239778 0)
(0.0139112 -0.0017234 0)
(0.0139847 -0.00124818 0)
(0.0138529 -0.000975511 0)
(0.0135467 -0.000865849 0)
(0.0130649 -0.000842877 0)
(0.0123627 -0.000802888 0)
(0.0113463 -0.000627014 0)
(0.00987323 -0.000197407 0)
(0.00775933 0.000587869 0)
(0.00479139 0.00180387 0)
(0.000740778 0.00349462 0)
(-0.00462466 0.0056791 0)
(-0.0115295 0.00835999 0)
(-0.0201726 0.0115302 0)
(-0.0306992 0.0151669 0)
(-0.043154 0.0192157 0)
(-0.0574242 0.0235543 0)
(-0.0732061 0.0279726 0)
(-0.0900323 0.0322015 0)
(-0.107369 0.0359844 0)
(-0.124722 0.0391391 0)
(-0.141703 0.0415762 0)
(-0.15804 0.0432825 0)
(-0.173561 0.0442949 0)
(-0.188167 0.0446775 0)
(-0.201814 0.044505 0)
(-0.214491 0.0438528 0)
(-0.226206 0.0427909 0)
(-0.236978 0.0413809 0)
(-0.246833 0.0396746 0)
(-0.255796 0.0377142 0)
(-0.263892 0.0355326 0)
(-0.271143 0.0331539 0)
(-0.277567 0.0305942 0)
(-0.283178 0.0278633 0)
(-0.287987 0.0249644 0)
(-0.291996 0.0218952 0)
(-0.295205 0.0186501 0)
(-0.297608 0.0152191 0)
(-0.299187 0.0115893 0)
(-0.299916 0.00775483 0)
(-0.299768 0.00371522 0)
(-0.298707 -0.000542616 0)
(-0.296732 -0.00501792 0)
(-0.293791 -0.00973909 0)
(-0.289827 -0.0146957 0)
(-0.284787 -0.0198672 0)
(-0.278611 -0.0252256 0)
(-0.271239 -0.0307261 0)
(-0.26261 -0.0363077 0)
(-0.252668 -0.0418881 0)
(-0.241365 -0.0473614 0)
(-0.228664 -0.0525966 0)
(-0.214552 -0.0574375 0)
(-0.199043 -0.0617048 0)
(-0.182191 -0.0652022 0)
(-0.164099 -0.0677258 0)
(-0.144929 -0.0690776 0)
(-0.124909 -0.0690842 0)
(-0.104335 -0.0676182 0)
(-0.0835749 -0.064622 0)
(-0.0630488 -0.0601274 0)
(-0.0432012 -0.0542498 0)
(-0.0245082 -0.0472769 0)
(-0.00730778 -0.0394083 0)
(0.00799149 -0.031083 0)
(0.0211811 -0.0226502 0)
(0.0322591 -0.0144151 0)
(0.0411835 -0.00666114 0)
(0.0480571 0.000451109 0)
(0.0529978 0.00677599 0)
(0.0560953 0.0122105 0)
(0.0574135 0.0166582 0)
(0.0570213 0.0200156 0)
(0.0550244 0.0221966 0)
(0.0516048 0.0231743 0)
(0.0470415 0.023018 0)
(0.0416961 0.0219052 0)
(0.0359663 0.0200948 0)
(0.0302253 0.0178738 0)
(0.0247729 0.0155017 0)
(0.0198108 0.0131732 0)
(0.0154458 0.0110085 0)
(0.0117079 0.0090665 0)
(0.00857393 0.00736888 0)
(0.00598973 0.00591961 0)
(0.0038856 0.00470429 0)
(0.00218909 0.00365393 0)
(0.000878706 0.00257511 0)
(0.000161748 0.00111077 0)
(8.65723e-05 -0.000834133 0)
(0.000704012 -0.00271741 0)
(0.00206095 -0.00464718 0)
(0.00390185 -0.00626987 0)
(0.00600613 -0.00729815 0)
(0.0081369 -0.00760865 0)
(0.0100788 -0.00724554 0)
(0.0116791 -0.00636998 0)
(0.0128578 -0.0051953 0)
(0.0135979 -0.00393228 0)
(0.0139266 -0.00275293 0)
(0.0138938 -0.00177154 0)
(0.0135509 -0.00103801 0)
(0.0129317 -0.000538808 0)
(0.0120351 -0.00020208 0)
(0.0108093 9.37621e-05 0)
(0.00914213 0.00050629 0)
(0.00685785 0.00120987 0)
(0.0037249 0.00237191 0)
(-0.00052743 0.00413105 0)
(-0.00618876 0.00658293 0)
(-0.013545 0.0097777 0)
(-0.0228535 0.0137245 0)
(-0.0343076 0.0183943 0)
(-0.0479811 0.0237047 0)
(-0.0637558 0.0294829 0)
(-0.0812689 0.0354385 0)
(-0.0999435 0.0411952 0)
(-0.119118 0.0463889 0)
(-0.138192 0.0507595 0)
(-0.156717 0.0541791 0)
(-0.174399 0.0566281 0)
(-0.191076 0.0581574 0)
(-0.206675 0.0588548 0)
(-0.221185 0.0588222 0)
(-0.234624 0.0581624 0)
(-0.247032 0.0569712 0)
(-0.258453 0.0553341 0)
(-0.268936 0.0533249 0)
(-0.278525 0.051005 0)
(-0.28726 0.0484242 0)
(-0.29518 0.045621 0)
(-0.302315 0.0426238 0)
(-0.308692 0.0394519 0)
(-0.314332 0.0361167 0)
(-0.319253 0.0326229 0)
(-0.323468 0.0289684 0)
(-0.326983 0.0251457 0)
(-0.329801 0.0211441 0)
(-0.331919 0.0169496 0)
(-0.333321 0.0125435 0)
(-0.333981 0.00791103 0)
(-0.333883 0.00304723 0)
(-0.333011 -0.0020705 0)
(-0.331352 -0.00748248 0)
(-0.328857 -0.0131661 0)
(-0.325482 -0.0191381 0)
(-0.321158 -0.0253816 0)
(-0.315829 -0.0318738 0)
(-0.309422 -0.0385753 0)
(-0.301862 -0.0454245 0)
(-0.293066 -0.0523372 0)
(-0.282953 -0.0592004 0)
(-0.271441 -0.0658697 0)
(-0.258459 -0.072168 0)
(-0.243952 -0.0778853 0)
(-0.227895 -0.0827836 0)
(-0.210305 -0.0866049 0)
(-0.191257 -0.0890854 0)
(-0.170897 -0.0899767 0)
(-0.149463 -0.0890722 0)
(-0.127284 -0.0862379 0)
(-0.104789 -0.0814423 0)
(-0.0824872 -0.0747824 0)
(-0.0609397 -0.066502 0)
(-0.0406949 -0.0569537 0)
(-0.0222671 -0.0466619 0)
(-0.00599535 -0.0360333 0)
(0.00790406 -0.0255984 0)
(0.019414 -0.0157118 0)
(0.0287017 -0.00660942 0)
(0.0359519 0.00157628 0)
(0.0413656 0.00876955 0)
(0.045081 0.0149097 0)
(0.0471703 0.0199072 0)
(0.0476743 0.0236466 0)
(0.0466555 0.0260285 0)
(0.0442507 0.0270277 0)
(0.0406963 0.0267376 0)
(0.0363154 0.0253747 0)
(0.031472 0.02324 0)
(0.0265139 0.0206555 0)
(0.0217263 0.0179054 0)
(0.0173082 0.0152019 0)
(0.0133722 0.0126806 0)
(0.00995882 0.0104176 0)
(0.00705827 0.00844973 0)
(0.00463152 0.0067724 0)
(0.00262908 0.00529559 0)
(0.00105856 0.00375379 0)
(0.000194686 0.00164198 0)
(0.000104317 -0.00123067 0)
(0.000845592 -0.00383643 0)
(0.00244628 -0.00636242 0)
(0.00454978 -0.00836633 0)
(0.00685754 -0.00951068 0)
(0.00907638 -0.00968379 0)
(0.0109642 -0.00899012 0)
(0.0123708 -0.00767096 0)
(0.0132373 -0.00601452 0)
(0.0135742 -0.00428671 0)
(0.0134307 -0.00268986 0)
(0.0128665 -0.00134415 0)
(0.0119246 -0.000283115 0)
(0.0106082 0.000543071 0)
(0.00886148 0.00125957 0)
(0.00655406 0.00205397 0)
(0.00347535 0.00315499 0)
(-0.000657834 0.00480183 0)
(-0.00618034 0.00721093 0)
(-0.013446 0.0105454 0)
(-0.0227885 0.014897 0)
(-0.0344748 0.020279 0)
(-0.0486433 0.0266139 0)
(-0.065221 0.0337039 0)
(-0.0838501 0.0411984 0)
(-0.103897 0.0486179 0)
(-0.124585 0.0554654 0)
(-0.145187 0.0613582 0)
(-0.165153 0.0660884 0)
(-0.184138 0.069603 0)
(-0.20196 0.0719517 0)
(-0.218556 0.0732392 0)
(-0.233928 0.0735921 0)
(-0.248116 0.0731399 0)
(-0.26118 0.072005 0)
(-0.273183 0.0702981 0)
(-0.284188 0.0681162 0)
(-0.294253 0.0655424 0)
(-0.303435 0.0626463 0)
(-0.311783 0.0594846 0)
(-0.31934 0.0561018 0)
(-0.326145 0.0525316 0)
(-0.332234 0.0487977 0)
(-0.337637 0.0449146 0)
(-0.342378 0.0408891 0)
(-0.346482 0.0367216 0)
(-0.349967 0.0324059 0)
(-0.352846 0.0279301 0)
(-0.355129 0.0232788 0)
(-0.356825 0.0184348 0)
(-0.357928 0.0133758 0)
(-0.358419 0.00807213 0)
(-0.358293 0.00250281 0)
(-0.357559 -0.0033501 0)
(-0.356212 -0.00952967 0)
(-0.354197 -0.0160302 0)
(-0.351492 -0.0228596 0)
(-0.348034 -0.0300208 0)
(-0.343773 -0.0374947 0)
(-0.338635 -0.0452558 0)
(-0.332538 -0.0532504 0)
(-0.325384 -0.061402 0)
(-0.317065 -0.0696024 0)
(-0.307461 -0.0777062 0)
(-0.296444 -0.0855286 0)
(-0.28389 -0.0928417 0)
(-0.269682 -0.0993765 0)
(-0.25373 -0.104828 0)
(-0.235989 -0.108868 0)
(-0.216481 -0.111165 0)
(-0.195316 -0.111412 0)
(-0.172722 -0.109366 0)
(-0.149061 -0.104887 0)
(-0.124829 -0.0979823 0)
(-0.100649 -0.08884 0)
(-0.0772235 -0.0778379 0)
(-0.0552695 -0.0655334 0)
(-0.0354123 -0.05257 0)
(-0.0181048 -0.0396438 0)
(-0.00353656 -0.0272898 0)
(0.00836068 -0.0159247 0)
(0.0178433 -0.00573541 0)
(0.0252533 0.0032328 0)
(0.0308918 0.0109939 0)
(0.034955 0.0175355 0)
(0.0375335 0.0227837 0)
(0.0386573 0.0266235 0)
(0.0383662 0.0289617 0)
(0.0367701 0.0297988 0)
(0.0340744 0.0292688 0)
(0.0305652 0.0276297 0)
(0.026566 0.025213 0)
(0.022387 0.0223563 0)
(0.0182845 0.0193495 0)
(0.0144403 0.0164092 0)
(0.0109615 0.0136799 0)
(0.00789441 0.0112456 0)
(0.00524511 0.00912201 0)
(0.00300141 0.00720071 0)
(0.00121181 0.00513848 0)
(0.000222238 0.00226786 0)
(0.000126897 -0.00170458 0)
(0.00100844 -0.00515599 0)
(0.0028685 -0.0083321 0)
(0.00522394 -0.0106853 0)
(0.00768306 -0.0118393 0)
(0.00989448 -0.0117254 0)
(0.0115985 -0.0105439 0)
(0.0126607 -0.00864192 0)
(0.0130557 -0.00639411 0)
(0.0128274 -0.00411958 0)
(0.0120474 -0.00203903 0)
(0.0107768 -0.000259616 0)
(0.00903426 0.00122548 0)
(0.00676833 0.00252948 0)
(0.00383778 0.00385812 0)
(1.58959e-06 0.00548879 0)
(-0.00507499 0.00773385 0)
(-0.0117917 0.0108948 0)
(-0.0205657 0.0152129 0)
(-0.0317692 0.020828 0)
(-0.0456527 0.0277467 0)
(-0.0622529 0.0358105 0)
(-0.0812994 0.0446622 0)
(-0.10218 0.0537525 0)
(-0.124044 0.0624424 0)
(-0.146016 0.0701736 0)
(-0.167392 0.0765915 0)
(-0.187714 0.0815579 0)
(-0.206744 0.0850915 0)
(-0.224393 0.0872997 0)
(-0.240663 0.0883287 0)
(-0.255603 0.0883341 0)
(-0.269282 0.0874664 0)
(-0.281777 0.0858636 0)
(-0.293162 0.0836489 0)
(-0.303512 0.08093 0)
(-0.312893 0.0777997 0)
(-0.321369 0.0743362 0)
(-0.328999 0.070604 0)
(-0.335838 0.066655 0)
(-0.341936 0.0625292 0)
(-0.347339 0.0582559 0)
(-0.352088 0.0538546 0)
(-0.356223 0.049336 0)
(-0.359778 0.0447034 0)
(-0.362784 0.039953 0)
(-0.36527 0.0350757 0)
(-0.36726 0.0300568 0)
(-0.368773 0.0248761 0)
(-0.369829 0.0195129 0)
(-0.370443 0.0139439 0)
(-0.370611 0.00812949 0)
(-0.370335 0.00202776 0)
(-0.369642 -0.00437595 0)
(-0.368529 -0.0111174 0)
(-0.366959 -0.0182133 0)
(-0.364927 -0.0256701 0)
(-0.362388 -0.0335092 0)
(-0.359303 -0.0417233 0)
(-0.355608 -0.0503035 0)
(-0.351225 -0.0592135 0)
(-0.346057 -0.0683944 0)
(-0.339981 -0.0777552 0)
(-0.332855 -0.0871653 0)
(-0.324513 -0.0964498 0)
(-0.314771 -0.105382 0)
(-0.303434 -0.113681 0)
(-0.290307 -0.121013 0)
(-0.275212 -0.126999 0)
(-0.258018 -0.13123 0)
(-0.238665 -0.133294 0)
(-0.217204 -0.132814 0)
(-0.193836 -0.129502 0)
(-0.168938 -0.12321 0)
(-0.143081 -0.11399 0)
(-0.117017 -0.102137 0)
(-0.0916298 -0.0882 0)
(-0.067832 -0.0729441 0)
(-0.0464362 -0.0572601 0)
(-0.0280052 -0.0420032 0)
(-0.0127523 -0.0278562 0)
(-0.000534291 -0.0152098 0)
(0.00904958 -0.00417599 0)
(0.016483 0.00531294 0)
(0.0221745 0.0133699 0)
(0.0263845 0.0200348 0)
(0.0292246 0.0252593 0)
(0.0307258 0.0289449 0)
(0.0309222 0.03103 0)
(0.029912 0.031562 0)
(0.0278789 0.0307247 0)
(0.0250764 0.0288124 0)
(0.021788 0.0261718 0)
(0.0182831 0.0231396 0)
(0.014784 0.0199987 0)
(0.0114506 0.0169612 0)
(0.00838355 0.0141646 0)
(0.00563907 0.0116515 0)
(0.00325051 0.00929804 0)
(0.00131353 0.00668135 0)
(0.000239067 0.00296588 0)
(0.000156382 -0.00227031 0)
(0.00119812 -0.00669606 0)
(0.0033299 -0.0105573 0)
(0.00591071 -0.0131887 0)
(0.00844359 -0.0141992 0)
(0.0105254 -0.0136094 0)
(0.0118955 -0.011758 0)
(0.0124531 -0.00912374 0)
(0.0122168 -0.00617331 0)
(0.0112665 -0.00326935 0)
(0.009688 -0.000630397 0)
(0.007527 0.00167705 0)
(0.0047516 0.00373288 0)
(0.00122247 0.00574797 0)
(-0.00332096 0.0080383 0)
(-0.00925601 0.0109866 0)
(-0.0170427 0.0149827 0)
(-0.0271563 0.0203524 0)
(-0.039997 0.0272846 0)
(-0.0557786 0.0357685 0)
(-0.0744109 0.0455413 0)
(-0.0954173 0.0560693 0)
(-0.117965 0.0666166 0)
(-0.141056 0.0764238 0)
(-0.163783 0.0849087 0)
(-0.185499 0.0917613 0)
(-0.20584 0.0969102 0)
(-0.224651 0.100435 0)
(-0.241905 0.102488 0)
(-0.257643 0.103249 0)
(-0.271939 0.102896 0)
(-0.284875 0.101599 0)
(-0.29654 0.09951 0)
(-0.307017 0.0967669 0)
(-0.316392 0.0934894 0)
(-0.324744 0.0897817 0)
(-0.33215 0.0857327 0)
(-0.338686 0.0814164 0)
(-0.344419 0.0768932 0)
(-0.349417 0.0722108 0)
(-0.353741 0.0674049 0)
(-0.357447 0.0625004 0)
(-0.360587 0.0575128 0)
(-0.36321 0.0524491 0)
(-0.365358 0.0473088 0)
(-0.36707 0.0420844 0)
(-0.368385 0.0367637 0)
(-0.369334 0.0313296 0)
(-0.369945 0.0257583 0)
(-0.370245 0.0200237 0)
(-0.370266 0.0141005 0)
(-0.370028 0.00795044 0)
(-0.369531 0.00151724 0)
(-0.368808 -0.00522184 0)
(-0.367857 -0.0122861 0)
(-0.366672 -0.0197193 0)
(-0.365253 -0.0275338 0)
(-0.363588 -0.0357643 0)
(-0.361645 -0.0444212 0)
(-0.359384 -0.053512 0)
(-0.356741 -0.0630236 0)
(-0.35363 -0.0729216 0)
(-0.349939 -0.0831427 0)
(-0.345526 -0.0935855 0)
(-0.340211 -0.104103 0)
(-0.333784 -0.114494 0)
(-0.325998 -0.124491 0)
(-0.316579 -0.133763 0)
(-0.305239 -0.141906 0)
(-0.291699 -0.148461 0)
(-0.275715 -0.152924 0)
(-0.257125 -0.154792 0)
(-0.235894 -0.153602 0)
(-0.212173 -0.149004 0)
(-0.186342 -0.140837 0)
(-0.159043 -0.129198 0)
(-0.131171 -0.114502 0)
(-0.103817 -0.0974951 0)
(-0.078134 -0.0791971 0)
(-0.0551572 -0.0607573 0)
(-0.0355962 -0.0432475 0)
(-0.0196934 -0.0274468 0)
(-0.00721986 -0.0137232 0)
(0.00237687 -0.00207742 0)
(0.00972559 0.00769478 0)
(0.0153403 0.0157977 0)
(0.0195375 0.02234 0)
(0.0224499 0.0273041 0)
(0.0241209 0.0306308 0)
(0.0245909 0.0323121 0)
(0.023956 0.0324552 0)
(0.0223862 0.0312913 0)
(0.0201074 0.0291391 0)
(0.0173663 0.0263465 0)
(0.0143939 0.0232372 0)
(0.0113806 0.0200777 0)
(0.00846941 0.0170549 0)
(0.00576298 0.014239 0)
(0.00334131 0.0114918 0)
(0.00134727 0.00831194 0)
(0.000241618 0.00370126 0)
(0.000193821 -0.00294406 0)
(0.00141367 -0.00847322 0)
(0.00381528 -0.0130239 0)
(0.00656698 -0.0158115 0)
(0.00906228 -0.0164752 0)
(0.0108636 -0.0151866 0)
(0.0117335 -0.0124698 0)
(0.0116227 -0.00895468 0)
(0.0106012 -0.00519595 0)
(0.00877904 -0.00157885 0)
(0.00623863 0.0017112 0)
(0.00298272 0.00468627 0)
(-0.0011059 0.00754068 0)
(-0.00629133 0.0106165 0)
(-0.0129791 0.0143602 0)
(-0.0216759 0.0192494 0)
(-0.0329074 0.0256976 0)
(-0.0470942 0.0339455 0)
(-0.0644063 0.0439612 0)
(-0.0846288 0.0553726 0)
(-0.107103 0.0674759 0)
(-0.130824 0.0793715 0)
(-0.154697 0.0902051 0)
(-0.177813 0.099383 0)
(-0.199583 0.106637 0)
(-0.219712 0.111952 0)
(-0.238104 0.115457 0)
(-0.254769 0.117342 0)
(-0.26977 0.117814 0)
(-0.283194 0.117074 0)
(-0.295135 0.11531 0)
(-0.305694 0.112695 0)
(-0.31497 0.10938 0)
(-0.323064 0.105503 0)
(-0.330077 0.101182 0)
(-0.336107 0.0965173 0)
(-0.341248 0.091595 0)
(-0.34559 0.0864846 0)
(-0.349217 0.0812417 0)
(-0.352206 0.0759084 0)
(-0.354629 0.0705152 0)
(-0.356551 0.0650815 0)
(-0.358029 0.0596177 0)
(-0.359117 0.054126 0)
(-0.359862 0.0486016 0)
(-0.360306 0.043033 0)
(-0.360488 0.0374041 0)
(-0.360445 0.0316947 0)
(-0.360209 0.0258792 0)
(-0.359806 0.0199266 0)
(-0.359275 0.0138068 0)
(-0.358657 0.00748992 0)
(-0.357953 0.000924302 0)
(-0.357179 -0.00594823 0)
(-0.356346 -0.0131174 0)
(-0.355475 -0.0206482 0)
(-0.354569 -0.0285699 0)
(-0.35364 -0.0369204 0)
(-0.352673 -0.0457294 0)
(-0.351648 -0.0550182 0)
(-0.350527 -0.064797 0)
(-0.349248 -0.0750579 0)
(-0.347727 -0.0857699 0)
(-0.345843 -0.0968695 0)
(-0.343437 -0.108252 0)
(-0.340307 -0.119758 0)
(-0.336197 -0.131166 0)
(-0.330803 -0.142176 0)
(-0.323774 -0.152406 0)
(-0.314722 -0.161386 0)
(-0.303253 -0.168568 0)
(-0.288996 -0.173349 0)
(-0.271663 -0.175113 0)
(-0.25111 -0.173297 0)
(-0.227413 -0.167473 0)
(-0.200939 -0.157449 0)
(-0.172393 -0.143366 0)
(-0.142826 -0.125771 0)
(-0.113559 -0.105635 0)
(-0.0860234 -0.0842638 0)
(-0.0615094 -0.0631059 0)
(-0.0408912 -0.0434575 0)
(-0.0244348 -0.0261859 0)
(-0.0118072 -0.0116038 0)
(-0.0023033 0.000426142 0)
(0.00485757 0.0102521 0)
(0.0102834 0.0181849 0)
(0.0143258 0.0243922 0)
(0.0171482 0.0289088 0)
(0.0188122 0.0317341 0)
(0.0193716 0.0329269 0)
(0.0189279 0.032654 0)
(0.0176424 0.0311844 0)
(0.0157179 0.0288475 0)
(0.013369 0.0259804 0)
(0.0107943 0.022883 0)
(0.00816237 0.0197799 0)
(0.00561252 0.0167628 0)
(0.00326657 0.0136779 0)
(0.001309 0.00994949 0)
(0.000229106 0.00443326 0)
(0.000239563 -0.00374051 0)
(0.00164812 -0.0104921 0)
(0.00429273 -0.0156915 0)
(0.00712354 -0.0184537 0)
(0.00943368 -0.0185194 0)
(0.0107799 -0.0162869 0)
(0.0109759 -0.01251 0)
(0.0100391 -0.00797793 0)
(0.00808948 -0.00331443 0)
(0.00525086 0.00110657 0)
(0.00157424 0.00517644 0)
(-0.00301581 0.00903344 0)
(-0.00876247 0.0130243 0)
(-0.0160799 0.0176464 0)
(-0.0255048 0.0234631 0)
(-0.0376015 0.0309787 0)
(-0.0528083 0.0404925 0)
(-0.0712601 0.0519612 0)
(-0.0926404 0.0649175 0)
(-0.116148 0.0785072 0)
(-0.140651 0.0916862 0)
(-0.164985 0.103513 0)
(-0.18824 0.113376 0)
(-0.209866 0.121035 0)
(-0.229616 0.126521 0)
(-0.247429 0.130002 0)
(-0.263336 0.1317 0)
(-0.277416 0.131851 0)
(-0.289767 0.130682 0)
(-0.300501 0.128403 0)
(-0.309735 0.125209 0)
(-0.317593 0.121274 0)
(-0.324202 0.116754 0)
(-0.329688 0.111783 0)
(-0.334176 0.106478 0)
(-0.337783 0.100935 0)
(-0.34062 0.095233 0)
(-0.34279 0.0894356 0)
(-0.344384 0.08359 0)
(-0.345486 0.0777308 0)
(-0.346169 0.0718805 0)
(-0.346498 0.0660515 0)
(-0.34653 0.0602474 0)
(-0.346314 0.0544646 0)
(-0.345894 0.0486931 0)
(-0.345311 0.0429174 0)
(-0.344597 0.0371172 0)
(-0.343785 0.0312685 0)
(-0.342906 0.0253444 0)
(-0.341986 0.0193118 0)
(-0.341054 0.0131337 0)
(-0.340155 0.00678035 0)
(-0.339321 0.000222512 0)
(-0.338526 -0.00659835 0)
(-0.337786 -0.013714 0)
(-0.337156 -0.021166 0)
(-0.336637 -0.0290058 0)
(-0.336254 -0.0372693 0)
(-0.336008 -0.0459991 0)
(-0.335901 -0.0552285 0)
(-0.335919 -0.064985 0)
(-0.336032 -0.0752846 0)
(-0.33619 -0.0861258 0)
(-0.336314 -0.0974835 0)
(-0.336285 -0.109299 0)
(-0.335943 -0.121468 0)
(-0.335067 -0.13383 0)
(-0.333376 -0.146148 0)
(-0.330514 -0.158097 0)
(-0.32606 -0.169253 0)
(-0.319532 -0.17908 0)
(-0.310411 -0.186944 0)
(-0.298193 -0.192133 0)
(-0.282441 -0.193908 0)
(-0.262881 -0.191583 0)
(-0.239491 -0.184632 0)
(-0.212604 -0.172815 0)
(-0.182983 -0.15631 0)
(-0.151838 -0.135807 0)
(-0.120747 -0.112525 0)
(-0.0914491 -0.0881011 0)
(-0.0655173 -0.0643132 0)
(-0.0439925 -0.042692 0)
(-0.0271435 -0.0241707 0)
(-0.0145098 -0.00897084 0)
(-0.00521393 0.00321776 0)
(0.00165221 0.0128859 0)
(0.00676875 0.0204538 0)
(0.0105312 0.0261574 0)
(0.0131255 0.0300963 0)
(0.0146358 0.0323405 0)
(0.0151355 0.0330172 0)
(0.0147349 0.0323445 0)
(0.0135891 0.0306157 0)
(0.011882 0.0281577 0)
(0.0098026 0.0252823 0)
(0.00752916 0.022235 0)
(0.00522522 0.0191188 0)
(0.00304566 0.0157605 0)
(0.00120695 0.0115164 0)
(0.000203544 0.00512251 0)
(0.000293281 -0.0046698 0)
(0.00188832 -0.0127371 0)
(0.00471463 -0.018484 0)
(0.00749098 -0.0209757 0)
(0.00943657 -0.020155 0)
(0.0101406 -0.0167292 0)
(0.00949419 -0.0117144 0)
(0.00758809 -0.00604873 0)
(0.00457941 -0.000389758 0)
(0.000578995 0.00494903 0)
(-0.00442971 0.00998948 0)
(-0.0106438 0.0150415 0)
(-0.0184574 0.020631 0)
(-0.0284183 0.0273982 0)
(-0.0411167 0.0359425 0)
(-0.0570105 0.0466365 0)
(-0.0762183 0.0594492 0)
(-0.0983589 0.073847 0)
(-0.122534 0.0888524 0)
(-0.147516 0.10329 0)
(-0.172083 0.116123 0)
(-0.195309 0.126704 0)
(-0.216661 0.134802 0)
(-0.235917 0.140479 0)
(-0.253034 0.143938 0)
(-0.268062 0.145435 0)
(-0.281091 0.145235 0)
(-0.292238 0.143594 0)
(-0.301637 0.140753 0)
(-0.309434 0.136935 0)
(-0.315783 0.132339 0)
(-0.320842 0.127143 0)
(-0.32477 0.121502 0)
(-0.327717 0.115546 0)
(-0.329825 0.109384 0)
(-0.331224 0.103104 0)
(-0.332031 0.0967737 0)
(-0.33235 0.0904451 0)
(-0.332269 0.0841545 0)
(-0.331866 0.0779254 0)
(-0.331206 0.0717707 0)
(-0.330345 0.065694 0)
(-0.32933 0.0596915 0)
(-0.3282 0.0537531 0)
(-0.32699 0.0478636 0)
(-0.325731 0.0420036 0)
(-0.324446 0.0361495 0)
(-0.323162 0.0302739 0)
(-0.321902 0.0243482 0)